<?xml version="1.0" encoding="UTF-8"?>

<!-- generated on 2026-05-13 21:30:33 by Eclipse SUMO sumo Version 1.24.0
<sumoConfiguration xmlns:xsi="http://www.w3.org/2001/XMLSchema-instance" xsi:noNamespaceSchemaLocation="http://sumo.dlr.de/xsd/sumoConfiguration.xsd">

    <input>
        <net-file value="scenarios/simple_arterial/simple_arterial.net.xml"/>
        <route-files value="scenarios/simple_arterial/simple_arterial.rou.xml"/>
        <additional-files value="scenarios/simple_arterial/simple_arterial.tls.xml"/>
    </input>

    <output>
        <fcd-output value="runs/fcd_rlhf/episode_00007_seed_207.fcd.xml"/>
    </output>

    <time>
        <begin value="0"/>
        <end value="900"/>
        <step-length value="0.5"/>
    </time>

    <report>
        <no-warnings value="true"/>
    </report>

    <traci_server>
        <remote-port value="22810"/>
    </traci_server>

    <random_number>
        <seed value="207"/>
    </random_number>

</sumoConfiguration>
-->

<fcd-export xmlns:xsi="http://www.w3.org/2001/XMLSchema-instance" xsi:noNamespaceSchemaLocation="http://sumo.dlr.de/xsd/fcd_file.xsd">
    <timestep time="0.00"/>
    <timestep time="0.50"/>
    <timestep time="1.00"/>
    <timestep time="1.50"/>
    <timestep time="2.00"/>
    <timestep time="2.50"/>
    <timestep time="3.00"/>
    <timestep time="3.50"/>
    <timestep time="4.00"/>
    <timestep time="4.50"/>
    <timestep time="5.00"/>
    <timestep time="5.50"/>
    <timestep time="6.00"/>
    <timestep time="6.50"/>
    <timestep time="7.00">
        <vehicle id="background.0" x="5.10" y="-1.60" angle="90.00" type="human" speed="13.89" pos="5.10" lane="e0_0" slope="0.00"/>
    </timestep>
    <timestep time="7.50">
        <vehicle id="background.0" x="12.02" y="-1.60" angle="90.00" type="human" speed="13.83" pos="12.02" lane="e0_0" slope="0.00"/>
    </timestep>
    <timestep time="8.00">
        <vehicle id="background.0" x="18.79" y="-1.60" angle="90.00" type="human" speed="13.54" pos="18.79" lane="e0_0" slope="0.00"/>
    </timestep>
    <timestep time="8.50">
        <vehicle id="background.0" x="25.53" y="-1.60" angle="90.00" type="human" speed="13.49" pos="25.53" lane="e0_0" slope="0.00"/>
    </timestep>
    <timestep time="9.00">
        <vehicle id="background.0" x="32.47" y="-1.60" angle="90.00" type="human" speed="13.88" pos="32.47" lane="e0_0" slope="0.00"/>
        <vehicle id="background.1" x="5.10" y="-1.60" angle="90.00" type="human" speed="13.27" pos="5.10" lane="e0_0" slope="0.00"/>
    </timestep>
    <timestep time="9.50">
        <vehicle id="background.0" x="39.40" y="-1.60" angle="90.00" type="human" speed="13.86" pos="39.40" lane="e0_0" slope="0.00"/>
        <vehicle id="background.1" x="11.52" y="-1.60" angle="90.00" type="human" speed="12.85" pos="11.52" lane="e0_0" slope="0.00"/>
    </timestep>
    <timestep time="10.00">
        <vehicle id="background.0" x="46.10" y="-1.60" angle="90.00" type="human" speed="13.41" pos="46.10" lane="e0_0" slope="0.00"/>
        <vehicle id="background.1" x="18.13" y="-1.60" angle="90.00" type="human" speed="13.21" pos="18.13" lane="e0_0" slope="0.00"/>
    </timestep>
    <timestep time="10.50">
        <vehicle id="background.0" x="52.80" y="-1.60" angle="90.00" type="human" speed="13.40" pos="52.80" lane="e0_0" slope="0.00"/>
        <vehicle id="background.1" x="24.75" y="-1.60" angle="90.00" type="human" speed="13.24" pos="24.75" lane="e0_0" slope="0.00"/>
    </timestep>
    <timestep time="11.00">
        <vehicle id="background.0" x="59.66" y="-1.60" angle="90.00" type="human" speed="13.71" pos="59.66" lane="e0_0" slope="0.00"/>
        <vehicle id="background.1" x="31.28" y="-1.60" angle="90.00" type="human" speed="13.07" pos="31.28" lane="e0_0" slope="0.00"/>
    </timestep>
    <timestep time="11.50">
        <vehicle id="background.0" x="66.55" y="-1.60" angle="90.00" type="human" speed="13.79" pos="66.55" lane="e0_0" slope="0.00"/>
        <vehicle id="background.1" x="37.71" y="-1.60" angle="90.00" type="human" speed="12.86" pos="37.71" lane="e0_0" slope="0.00"/>
    </timestep>
    <timestep time="12.00">
        <vehicle id="background.0" x="73.46" y="-1.60" angle="90.00" type="human" speed="13.82" pos="73.46" lane="e0_0" slope="0.00"/>
        <vehicle id="background.1" x="44.28" y="-1.60" angle="90.00" type="human" speed="13.12" pos="44.28" lane="e0_0" slope="0.00"/>
    </timestep>
    <timestep time="12.50">
        <vehicle id="background.0" x="80.35" y="-1.60" angle="90.00" type="human" speed="13.78" pos="80.35" lane="e0_0" slope="0.00"/>
        <vehicle id="background.1" x="50.78" y="-1.60" angle="90.00" type="human" speed="13.01" pos="50.78" lane="e0_0" slope="0.00"/>
    </timestep>
    <timestep time="13.00">
        <vehicle id="background.0" x="87.15" y="-1.60" angle="90.00" type="human" speed="13.60" pos="87.15" lane="e0_0" slope="0.00"/>
        <vehicle id="background.1" x="57.41" y="-1.60" angle="90.00" type="human" speed="13.25" pos="57.41" lane="e0_0" slope="0.00"/>
    </timestep>
    <timestep time="13.50">
        <vehicle id="background.0" x="93.89" y="-1.60" angle="90.00" type="human" speed="13.49" pos="93.89" lane="e0_0" slope="0.00"/>
        <vehicle id="background.1" x="63.97" y="-1.60" angle="90.00" type="human" speed="13.12" pos="63.97" lane="e0_0" slope="0.00"/>
    </timestep>
    <timestep time="14.00">
        <vehicle id="background.0" x="100.75" y="-1.60" angle="90.00" type="human" speed="13.72" pos="100.75" lane="e0_0" slope="0.00"/>
        <vehicle id="background.1" x="70.49" y="-1.60" angle="90.00" type="human" speed="13.05" pos="70.49" lane="e0_0" slope="0.00"/>
    </timestep>
    <timestep time="14.50">
        <vehicle id="background.0" x="107.56" y="-1.60" angle="90.00" type="human" speed="13.61" pos="107.56" lane="e0_0" slope="0.00"/>
        <vehicle id="background.1" x="77.05" y="-1.60" angle="90.00" type="human" speed="13.12" pos="77.05" lane="e0_0" slope="0.00"/>
    </timestep>
    <timestep time="15.00">
        <vehicle id="background.0" x="114.45" y="-1.60" angle="90.00" type="human" speed="13.78" pos="114.45" lane="e0_0" slope="0.00"/>
        <vehicle id="background.1" x="83.45" y="-1.60" angle="90.00" type="human" speed="12.78" pos="83.45" lane="e0_0" slope="0.00"/>
        <vehicle id="background.2" x="5.10" y="-1.60" angle="90.00" type="human" speed="13.76" pos="5.10" lane="e0_0" slope="0.00"/>
    </timestep>
    <timestep time="15.50">
        <vehicle id="background.0" x="121.35" y="-1.60" angle="90.00" type="human" speed="13.81" pos="121.35" lane="e0_0" slope="0.00"/>
        <vehicle id="background.1" x="90.06" y="-1.60" angle="90.00" type="human" speed="13.24" pos="90.06" lane="e0_0" slope="0.00"/>
        <vehicle id="background.2" x="11.83" y="-1.60" angle="90.00" type="human" speed="13.45" pos="11.83" lane="e0_0" slope="0.00"/>
    </timestep>
    <timestep time="16.00">
        <vehicle id="background.0" x="128.14" y="-1.60" angle="90.00" type="human" speed="13.57" pos="128.14" lane="e0_0" slope="0.00"/>
        <vehicle id="background.1" x="96.47" y="-1.60" angle="90.00" type="human" speed="12.80" pos="96.47" lane="e0_0" slope="0.00"/>
        <vehicle id="background.2" x="18.49" y="-1.60" angle="90.00" type="human" speed="13.33" pos="18.49" lane="e0_0" slope="0.00"/>
    </timestep>
    <timestep time="16.50">
        <vehicle id="background.0" x="134.86" y="-1.60" angle="90.00" type="human" speed="13.45" pos="134.86" lane="e0_0" slope="0.00"/>
        <vehicle id="background.1" x="102.90" y="-1.60" angle="90.00" type="human" speed="12.87" pos="102.90" lane="e0_0" slope="0.00"/>
        <vehicle id="background.2" x="25.28" y="-1.60" angle="90.00" type="human" speed="13.57" pos="25.28" lane="e0_0" slope="0.00"/>
    </timestep>
    <timestep time="17.00">
        <vehicle id="background.0" x="141.57" y="-1.60" angle="90.00" type="human" speed="13.42" pos="141.57" lane="e0_0" slope="0.00"/>
        <vehicle id="background.1" x="109.43" y="-1.60" angle="90.00" type="human" speed="13.06" pos="109.43" lane="e0_0" slope="0.00"/>
        <vehicle id="background.2" x="32.02" y="-1.60" angle="90.00" type="human" speed="13.48" pos="32.02" lane="e0_0" slope="0.00"/>
    </timestep>
    <timestep time="17.50">
        <vehicle id="background.0" x="148.41" y="-1.60" angle="90.00" type="human" speed="13.67" pos="148.41" lane="e0_0" slope="0.00"/>
        <vehicle id="background.1" x="116.00" y="-1.60" angle="90.00" type="human" speed="13.14" pos="116.00" lane="e0_0" slope="0.00"/>
        <vehicle id="background.2" x="38.65" y="-1.60" angle="90.00" type="human" speed="13.28" pos="38.65" lane="e0_0" slope="0.00"/>
    </timestep>
    <timestep time="18.00">
        <vehicle id="background.0" x="155.26" y="-1.60" angle="90.00" type="human" speed="13.71" pos="155.26" lane="e0_0" slope="0.00"/>
        <vehicle id="background.1" x="122.57" y="-1.60" angle="90.00" type="human" speed="13.15" pos="122.57" lane="e0_0" slope="0.00"/>
        <vehicle id="background.2" x="45.48" y="-1.60" angle="90.00" type="human" speed="13.65" pos="45.48" lane="e0_0" slope="0.00"/>
    </timestep>
    <timestep time="18.50">
        <vehicle id="background.0" x="162.01" y="-1.60" angle="90.00" type="human" speed="13.49" pos="162.01" lane="e0_0" slope="0.00"/>
        <vehicle id="background.1" x="129.01" y="-1.60" angle="90.00" type="human" speed="12.88" pos="129.01" lane="e0_0" slope="0.00"/>
        <vehicle id="background.2" x="52.30" y="-1.60" angle="90.00" type="human" speed="13.63" pos="52.30" lane="e0_0" slope="0.00"/>
    </timestep>
    <timestep time="19.00">
        <vehicle id="background.0" x="168.79" y="-1.60" angle="90.00" type="human" speed="13.57" pos="168.79" lane="e0_0" slope="0.00"/>
        <vehicle id="background.1" x="135.42" y="-1.60" angle="90.00" type="human" speed="12.81" pos="135.42" lane="e0_0" slope="0.00"/>
        <vehicle id="background.2" x="59.10" y="-1.60" angle="90.00" type="human" speed="13.61" pos="59.10" lane="e0_0" slope="0.00"/>
    </timestep>
    <timestep time="19.50">
        <vehicle id="background.0" x="175.71" y="-1.60" angle="90.00" type="human" speed="13.82" pos="175.71" lane="e0_0" slope="0.00"/>
        <vehicle id="background.1" x="141.94" y="-1.60" angle="90.00" type="human" speed="13.06" pos="141.94" lane="e0_0" slope="0.00"/>
        <vehicle id="background.2" x="65.74" y="-1.60" angle="90.00" type="human" speed="13.27" pos="65.74" lane="e0_0" slope="0.00"/>
    </timestep>
    <timestep time="20.00">
        <vehicle id="background.0" x="182.50" y="-1.60" angle="90.00" type="human" speed="13.60" pos="182.50" lane="e0_0" slope="0.00"/>
        <vehicle id="background.1" x="148.50" y="-1.60" angle="90.00" type="human" speed="13.10" pos="148.50" lane="e0_0" slope="0.00"/>
        <vehicle id="background.2" x="72.39" y="-1.60" angle="90.00" type="human" speed="13.30" pos="72.39" lane="e0_0" slope="0.00"/>
    </timestep>
    <timestep time="20.50">
        <vehicle id="background.0" x="189.29" y="-1.60" angle="90.00" type="human" speed="13.58" pos="189.29" lane="e0_0" slope="0.00"/>
        <vehicle id="background.1" x="155.00" y="-1.60" angle="90.00" type="human" speed="13.02" pos="155.00" lane="e0_0" slope="0.00"/>
        <vehicle id="background.2" x="79.12" y="-1.60" angle="90.00" type="human" speed="13.46" pos="79.12" lane="e0_0" slope="0.00"/>
    </timestep>
    <timestep time="21.00">
        <vehicle id="background.0" x="196.06" y="-1.60" angle="90.00" type="human" speed="13.54" pos="196.06" lane="e0_0" slope="0.00"/>
        <vehicle id="background.1" x="161.43" y="-1.60" angle="90.00" type="human" speed="12.85" pos="161.43" lane="e0_0" slope="0.00"/>
        <vehicle id="background.2" x="85.90" y="-1.60" angle="90.00" type="human" speed="13.56" pos="85.90" lane="e0_0" slope="0.00"/>
    </timestep>
    <timestep time="21.50">
        <vehicle id="background.0" x="202.83" y="-1.60" angle="90.00" type="human" speed="13.55" pos="202.83" lane="e0_0" slope="0.00"/>
        <vehicle id="background.1" x="167.87" y="-1.60" angle="90.00" type="human" speed="12.88" pos="167.87" lane="e0_0" slope="0.00"/>
        <vehicle id="background.2" x="92.63" y="-1.60" angle="90.00" type="human" speed="13.46" pos="92.63" lane="e0_0" slope="0.00"/>
    </timestep>
    <timestep time="22.00">
        <vehicle id="background.0" x="209.71" y="-1.60" angle="90.00" type="human" speed="13.75" pos="209.71" lane="e0_0" slope="0.00"/>
        <vehicle id="background.1" x="174.35" y="-1.60" angle="90.00" type="human" speed="12.96" pos="174.35" lane="e0_0" slope="0.00"/>
        <vehicle id="background.2" x="99.33" y="-1.60" angle="90.00" type="human" speed="13.41" pos="99.33" lane="e0_0" slope="0.00"/>
    </timestep>
    <timestep time="22.50">
        <vehicle id="background.0" x="216.45" y="-1.60" angle="90.00" type="human" speed="13.49" pos="216.45" lane="e0_0" slope="0.00"/>
        <vehicle id="background.1" x="180.83" y="-1.60" angle="90.00" type="human" speed="12.96" pos="180.83" lane="e0_0" slope="0.00"/>
        <vehicle id="background.2" x="106.01" y="-1.60" angle="90.00" type="human" speed="13.35" pos="106.01" lane="e0_0" slope="0.00"/>
    </timestep>
    <timestep time="23.00">
        <vehicle id="background.0" x="223.19" y="-1.60" angle="90.00" type="human" speed="13.47" pos="223.19" lane="e0_0" slope="0.00"/>
        <vehicle id="background.1" x="187.40" y="-1.60" angle="90.00" type="human" speed="13.15" pos="187.40" lane="e0_0" slope="0.00"/>
        <vehicle id="background.2" x="112.80" y="-1.60" angle="90.00" type="human" speed="13.59" pos="112.80" lane="e0_0" slope="0.00"/>
    </timestep>
    <timestep time="23.50">
        <vehicle id="background.0" x="229.90" y="-1.60" angle="90.00" type="human" speed="13.44" pos="229.90" lane="e0_0" slope="0.00"/>
        <vehicle id="background.1" x="193.82" y="-1.60" angle="90.00" type="human" speed="12.83" pos="193.82" lane="e0_0" slope="0.00"/>
        <vehicle id="background.2" x="119.53" y="-1.60" angle="90.00" type="human" speed="13.45" pos="119.53" lane="e0_0" slope="0.00"/>
    </timestep>
    <timestep time="24.00">
        <vehicle id="background.0" x="236.81" y="-1.60" angle="90.00" type="human" speed="13.82" pos="236.81" lane="e0_0" slope="0.00"/>
        <vehicle id="background.1" x="200.45" y="-1.60" angle="90.00" type="human" speed="13.27" pos="200.45" lane="e0_0" slope="0.00"/>
        <vehicle id="background.2" x="126.31" y="-1.60" angle="90.00" type="human" speed="13.56" pos="126.31" lane="e0_0" slope="0.00"/>
    </timestep>
    <timestep time="24.50">
        <vehicle id="background.0" x="243.72" y="-1.60" angle="90.00" type="human" speed="13.81" pos="243.72" lane="e0_0" slope="0.00"/>
        <vehicle id="background.1" x="206.98" y="-1.60" angle="90.00" type="human" speed="13.06" pos="206.98" lane="e0_0" slope="0.00"/>
        <vehicle id="background.2" x="133.12" y="-1.60" angle="90.00" type="human" speed="13.62" pos="133.12" lane="e0_0" slope="0.00"/>
    </timestep>
    <timestep time="25.00">
        <vehicle id="background.0" x="250.66" y="-1.60" angle="90.00" type="human" speed="13.88" pos="250.66" lane="e0_0" slope="0.00"/>
        <vehicle id="background.1" x="213.58" y="-1.60" angle="90.00" type="human" speed="13.20" pos="213.58" lane="e0_0" slope="0.00"/>
        <vehicle id="background.2" x="139.89" y="-1.60" angle="90.00" type="human" speed="13.53" pos="139.89" lane="e0_0" slope="0.00"/>
        <vehicle id="ego" x="5.10" y="-1.60" angle="90.00" type="ego_type" speed="0.00" pos="5.10" lane="e0_0" slope="0.00"/>
    </timestep>
    <timestep time="25.50">
        <vehicle id="background.0" x="257.38" y="-1.60" angle="90.00" type="human" speed="13.44" pos="257.38" lane="e0_0" slope="0.00"/>
        <vehicle id="background.1" x="220.14" y="-1.60" angle="90.00" type="human" speed="13.11" pos="220.14" lane="e0_0" slope="0.00"/>
        <vehicle id="background.2" x="146.72" y="-1.60" angle="90.00" type="human" speed="13.67" pos="146.72" lane="e0_0" slope="0.00"/>
        <vehicle id="ego" x="5.60" y="-1.60" angle="90.00" type="ego_type" speed="1.00" pos="5.60" lane="e0_0" slope="0.00"/>
    </timestep>
    <timestep time="26.00">
        <vehicle id="background.0" x="264.19" y="-1.60" angle="90.00" type="human" speed="13.62" pos="264.19" lane="e0_0" slope="0.00"/>
        <vehicle id="background.1" x="226.72" y="-1.60" angle="90.00" type="human" speed="13.16" pos="226.72" lane="e0_0" slope="0.00"/>
        <vehicle id="background.2" x="153.57" y="-1.60" angle="90.00" type="human" speed="13.69" pos="153.57" lane="e0_0" slope="0.00"/>
        <vehicle id="ego" x="6.60" y="-1.60" angle="90.00" type="ego_type" speed="2.00" pos="6.60" lane="e0_0" slope="0.00"/>
    </timestep>
    <timestep time="26.50">
        <vehicle id="background.0" x="271.11" y="-1.60" angle="90.00" type="human" speed="13.84" pos="271.11" lane="e0_0" slope="0.00"/>
        <vehicle id="background.1" x="233.31" y="-1.60" angle="90.00" type="human" speed="13.19" pos="233.31" lane="e0_0" slope="0.00"/>
        <vehicle id="background.2" x="160.36" y="-1.60" angle="90.00" type="human" speed="13.58" pos="160.36" lane="e0_0" slope="0.00"/>
        <vehicle id="ego" x="8.10" y="-1.60" angle="90.00" type="ego_type" speed="3.00" pos="8.10" lane="e0_0" slope="0.00"/>
    </timestep>
    <timestep time="27.00">
        <vehicle id="background.0" x="277.82" y="-1.60" angle="90.00" type="human" speed="13.42" pos="277.82" lane="e0_0" slope="0.00"/>
        <vehicle id="background.1" x="239.83" y="-1.60" angle="90.00" type="human" speed="13.04" pos="239.83" lane="e0_0" slope="0.00"/>
        <vehicle id="background.2" x="167.04" y="-1.60" angle="90.00" type="human" speed="13.35" pos="167.04" lane="e0_0" slope="0.00"/>
        <vehicle id="ego" x="10.10" y="-1.60" angle="90.00" type="ego_type" speed="4.00" pos="10.10" lane="e0_0" slope="0.00"/>
    </timestep>
    <timestep time="27.50">
        <vehicle id="background.0" x="284.63" y="-1.60" angle="90.00" type="human" speed="13.61" pos="284.63" lane="e0_0" slope="0.00"/>
        <vehicle id="background.1" x="246.23" y="-1.60" angle="90.00" type="human" speed="12.79" pos="246.23" lane="e0_0" slope="0.00"/>
        <vehicle id="background.2" x="173.88" y="-1.60" angle="90.00" type="human" speed="13.68" pos="173.88" lane="e0_0" slope="0.00"/>
        <vehicle id="ego" x="12.35" y="-1.60" angle="90.00" type="ego_type" speed="4.50" pos="12.35" lane="e0_0" slope="0.00"/>
    </timestep>
    <timestep time="28.00">
        <vehicle id="background.0" x="291.48" y="-1.60" angle="90.00" type="human" speed="13.71" pos="291.48" lane="e0_0" slope="0.00"/>
        <vehicle id="background.1" x="252.69" y="-1.60" angle="90.00" type="human" speed="12.93" pos="252.69" lane="e0_0" slope="0.00"/>
        <vehicle id="background.2" x="180.62" y="-1.60" angle="90.00" type="human" speed="13.50" pos="180.62" lane="e0_0" slope="0.00"/>
        <vehicle id="ego" x="14.60" y="-1.60" angle="90.00" type="ego_type" speed="4.50" pos="14.60" lane="e0_0" slope="0.00"/>
    </timestep>
    <timestep time="28.50">
        <vehicle id="background.0" x="298.41" y="-1.60" angle="90.00" type="human" speed="13.86" pos="298.41" lane="e0_0" slope="0.00"/>
        <vehicle id="background.1" x="259.16" y="-1.60" angle="90.00" type="human" speed="12.94" pos="259.16" lane="e0_0" slope="0.00"/>
        <vehicle id="background.2" x="187.36" y="-1.60" angle="90.00" type="human" speed="13.48" pos="187.36" lane="e0_0" slope="0.00"/>
        <vehicle id="ego" x="16.85" y="-1.60" angle="90.00" type="ego_type" speed="4.50" pos="16.85" lane="e0_0" slope="0.00"/>
    </timestep>
    <timestep time="29.00">
        <vehicle id="background.0" x="305.01" y="-1.60" angle="90.00" type="human" speed="13.41" pos="5.01" lane="e1_0" slope="0.00"/>
        <vehicle id="background.1" x="265.74" y="-1.60" angle="90.00" type="human" speed="13.15" pos="265.74" lane="e0_0" slope="0.00"/>
        <vehicle id="background.2" x="194.23" y="-1.60" angle="90.00" type="human" speed="13.74" pos="194.23" lane="e0_0" slope="0.00"/>
        <vehicle id="ego" x="19.10" y="-1.60" angle="90.00" type="ego_type" speed="4.50" pos="19.10" lane="e0_0" slope="0.00"/>
    </timestep>
    <timestep time="29.50">
        <vehicle id="background.0" x="311.75" y="-1.60" angle="90.00" type="human" speed="13.47" pos="11.75" lane="e1_0" slope="0.00"/>
        <vehicle id="background.1" x="272.23" y="-1.60" angle="90.00" type="human" speed="12.98" pos="272.23" lane="e0_0" slope="0.00"/>
        <vehicle id="background.2" x="201.02" y="-1.60" angle="90.00" type="human" speed="13.57" pos="201.02" lane="e0_0" slope="0.00"/>
        <vehicle id="ego" x="21.35" y="-1.60" angle="90.00" type="ego_type" speed="4.50" pos="21.35" lane="e0_0" slope="0.00"/>
    </timestep>
    <timestep time="30.00">
        <vehicle id="background.0" x="318.47" y="-1.60" angle="90.00" type="human" speed="13.45" pos="18.47" lane="e1_0" slope="0.00"/>
        <vehicle id="background.1" x="278.62" y="-1.60" angle="90.00" type="human" speed="12.79" pos="278.62" lane="e0_0" slope="0.00"/>
        <vehicle id="background.2" x="207.88" y="-1.60" angle="90.00" type="human" speed="13.72" pos="207.88" lane="e0_0" slope="0.00"/>
        <vehicle id="ego" x="23.60" y="-1.60" angle="90.00" type="ego_type" speed="4.50" pos="23.60" lane="e0_0" slope="0.00"/>
    </timestep>
    <timestep time="30.50">
        <vehicle id="background.0" x="325.33" y="-1.60" angle="90.00" type="human" speed="13.72" pos="25.33" lane="e1_0" slope="0.00"/>
        <vehicle id="background.1" x="285.26" y="-1.60" angle="90.00" type="human" speed="13.27" pos="285.26" lane="e0_0" slope="0.00"/>
        <vehicle id="background.2" x="214.69" y="-1.60" angle="90.00" type="human" speed="13.63" pos="214.69" lane="e0_0" slope="0.00"/>
        <vehicle id="ego" x="25.85" y="-1.60" angle="90.00" type="ego_type" speed="4.50" pos="25.85" lane="e0_0" slope="0.00"/>
    </timestep>
    <timestep time="31.00">
        <vehicle id="background.0" x="332.20" y="-1.60" angle="90.00" type="human" speed="13.73" pos="32.20" lane="e1_0" slope="0.00"/>
        <vehicle id="background.1" x="291.84" y="-1.60" angle="90.00" type="human" speed="13.16" pos="291.84" lane="e0_0" slope="0.00"/>
        <vehicle id="background.2" x="221.43" y="-1.60" angle="90.00" type="human" speed="13.47" pos="221.43" lane="e0_0" slope="0.00"/>
        <vehicle id="ego" x="28.10" y="-1.60" angle="90.00" type="ego_type" speed="4.50" pos="28.10" lane="e0_0" slope="0.00"/>
    </timestep>
    <timestep time="31.50">
        <vehicle id="background.0" x="338.94" y="-1.60" angle="90.00" type="human" speed="13.48" pos="38.94" lane="e1_0" slope="0.00"/>
        <vehicle id="background.1" x="298.47" y="-1.60" angle="90.00" type="human" speed="13.26" pos="298.47" lane="e0_0" slope="0.00"/>
        <vehicle id="background.2" x="228.25" y="-1.60" angle="90.00" type="human" speed="13.65" pos="228.25" lane="e0_0" slope="0.00"/>
        <vehicle id="ego" x="30.35" y="-1.60" angle="90.00" type="ego_type" speed="4.50" pos="30.35" lane="e0_0" slope="0.00"/>
    </timestep>
    <timestep time="32.00">
        <vehicle id="background.0" x="345.66" y="-1.60" angle="90.00" type="human" speed="13.43" pos="45.66" lane="e1_0" slope="0.00"/>
        <vehicle id="background.1" x="304.81" y="-1.60" angle="90.00" type="human" speed="12.88" pos="4.81" lane="e1_0" slope="0.00"/>
        <vehicle id="background.2" x="235.10" y="-1.60" angle="90.00" type="human" speed="13.69" pos="235.10" lane="e0_0" slope="0.00"/>
        <vehicle id="ego" x="32.60" y="-1.60" angle="90.00" type="ego_type" speed="4.50" pos="32.60" lane="e0_0" slope="0.00"/>
    </timestep>
    <timestep time="32.50">
        <vehicle id="background.1" x="311.21" y="-1.60" angle="90.00" type="human" speed="12.81" pos="11.21" lane="e1_0" slope="0.00"/>
        <vehicle id="background.2" x="241.74" y="-1.60" angle="90.00" type="human" speed="13.27" pos="241.74" lane="e0_0" slope="0.00"/>
        <vehicle id="ego" x="34.85" y="-1.60" angle="90.00" type="ego_type" speed="4.50" pos="34.85" lane="e0_0" slope="0.00"/>
    </timestep>
    <timestep time="33.00">
        <vehicle id="background.1" x="317.76" y="-1.60" angle="90.00" type="human" speed="13.10" pos="17.76" lane="e1_0" slope="0.00"/>
        <vehicle id="background.2" x="248.55" y="-1.60" angle="90.00" type="human" speed="13.63" pos="248.55" lane="e0_0" slope="0.00"/>
        <vehicle id="ego" x="37.10" y="-1.60" angle="90.00" type="ego_type" speed="4.50" pos="37.10" lane="e0_0" slope="0.00"/>
    </timestep>
    <timestep time="33.50">
        <vehicle id="background.1" x="324.29" y="-1.60" angle="90.00" type="human" speed="13.06" pos="24.29" lane="e1_0" slope="0.00"/>
        <vehicle id="background.2" x="255.42" y="-1.60" angle="90.00" type="human" speed="13.74" pos="255.42" lane="e0_0" slope="0.00"/>
        <vehicle id="ego" x="39.35" y="-1.60" angle="90.00" type="ego_type" speed="4.50" pos="39.35" lane="e0_0" slope="0.00"/>
    </timestep>
    <timestep time="34.00">
        <vehicle id="background.1" x="330.75" y="-1.60" angle="90.00" type="human" speed="12.92" pos="30.75" lane="e1_0" slope="0.00"/>
        <vehicle id="background.2" x="262.18" y="-1.60" angle="90.00" type="human" speed="13.51" pos="262.18" lane="e0_0" slope="0.00"/>
        <vehicle id="ego" x="41.60" y="-1.60" angle="90.00" type="ego_type" speed="4.50" pos="41.60" lane="e0_0" slope="0.00"/>
    </timestep>
    <timestep time="34.50">
        <vehicle id="background.1" x="337.20" y="-1.60" angle="90.00" type="human" speed="12.89" pos="37.20" lane="e1_0" slope="0.00"/>
        <vehicle id="background.2" x="269.00" y="-1.60" angle="90.00" type="human" speed="13.64" pos="269.00" lane="e0_0" slope="0.00"/>
        <vehicle id="ego" x="43.85" y="-1.60" angle="90.00" type="ego_type" speed="4.50" pos="43.85" lane="e0_0" slope="0.00"/>
    </timestep>
    <timestep time="35.00">
        <vehicle id="background.1" x="343.76" y="-1.60" angle="90.00" type="human" speed="13.13" pos="43.76" lane="e1_0" slope="0.00"/>
        <vehicle id="background.2" x="275.65" y="-1.60" angle="90.00" type="human" speed="13.30" pos="275.65" lane="e0_0" slope="0.00"/>
        <vehicle id="ego" x="46.10" y="-1.60" angle="90.00" type="ego_type" speed="4.50" pos="46.10" lane="e0_0" slope="0.00"/>
    </timestep>
    <timestep time="35.50">
        <vehicle id="background.2" x="282.28" y="-1.60" angle="90.00" type="human" speed="13.27" pos="282.28" lane="e0_0" slope="0.00"/>
        <vehicle id="ego" x="48.35" y="-1.60" angle="90.00" type="ego_type" speed="4.50" pos="48.35" lane="e0_0" slope="0.00"/>
    </timestep>
    <timestep time="36.00">
        <vehicle id="background.2" x="288.95" y="-1.60" angle="90.00" type="human" speed="13.35" pos="288.95" lane="e0_0" slope="0.00"/>
        <vehicle id="ego" x="50.60" y="-1.60" angle="90.00" type="ego_type" speed="4.50" pos="50.60" lane="e0_0" slope="0.00"/>
    </timestep>
    <timestep time="36.50">
        <vehicle id="background.2" x="295.74" y="-1.60" angle="90.00" type="human" speed="13.57" pos="295.74" lane="e0_0" slope="0.00"/>
        <vehicle id="ego" x="52.85" y="-1.60" angle="90.00" type="ego_type" speed="4.50" pos="52.85" lane="e0_0" slope="0.00"/>
    </timestep>
    <timestep time="37.00">
        <vehicle id="background.2" x="302.28" y="-1.60" angle="90.00" type="human" speed="13.27" pos="2.28" lane="e1_0" slope="0.00"/>
        <vehicle id="ego" x="55.10" y="-1.60" angle="90.00" type="ego_type" speed="4.50" pos="55.10" lane="e0_0" slope="0.00"/>
    </timestep>
    <timestep time="37.50">
        <vehicle id="background.2" x="309.13" y="-1.60" angle="90.00" type="human" speed="13.71" pos="9.13" lane="e1_0" slope="0.00"/>
        <vehicle id="ego" x="57.35" y="-1.60" angle="90.00" type="ego_type" speed="4.50" pos="57.35" lane="e0_0" slope="0.00"/>
    </timestep>
    <timestep time="38.00">
        <vehicle id="background.2" x="315.99" y="-1.60" angle="90.00" type="human" speed="13.72" pos="15.99" lane="e1_0" slope="0.00"/>
        <vehicle id="ego" x="60.10" y="-1.60" angle="90.00" type="ego_type" speed="5.50" pos="60.10" lane="e0_0" slope="0.00"/>
    </timestep>
    <timestep time="38.50">
        <vehicle id="background.2" x="322.66" y="-1.60" angle="90.00" type="human" speed="13.33" pos="22.66" lane="e1_0" slope="0.00"/>
        <vehicle id="ego" x="62.10" y="-1.60" angle="90.00" type="ego_type" speed="4.00" pos="62.10" lane="e0_0" slope="0.00"/>
    </timestep>
    <timestep time="39.00">
        <vehicle id="background.2" x="329.36" y="-1.60" angle="90.00" type="human" speed="13.41" pos="29.36" lane="e1_0" slope="0.00"/>
        <vehicle id="ego" x="63.73" y="-1.60" angle="90.00" type="ego_type" speed="3.25" pos="63.73" lane="e0_0" slope="0.00"/>
    </timestep>
    <timestep time="39.50">
        <vehicle id="background.2" x="336.15" y="-1.60" angle="90.00" type="human" speed="13.58" pos="36.15" lane="e1_0" slope="0.00"/>
        <vehicle id="ego" x="65.35" y="-1.60" angle="90.00" type="ego_type" speed="3.25" pos="65.35" lane="e0_0" slope="0.00"/>
    </timestep>
    <timestep time="40.00">
        <vehicle id="background.2" x="342.94" y="-1.60" angle="90.00" type="human" speed="13.59" pos="42.94" lane="e1_0" slope="0.00"/>
        <vehicle id="ego" x="66.97" y="-1.60" angle="90.00" type="ego_type" speed="3.25" pos="66.97" lane="e0_0" slope="0.00"/>
    </timestep>
    <timestep time="40.50">
        <vehicle id="background.2" x="349.71" y="-1.60" angle="90.00" type="human" speed="13.54" pos="49.71" lane="e1_0" slope="0.00"/>
        <vehicle id="ego" x="68.60" y="-1.60" angle="90.00" type="ego_type" speed="3.25" pos="68.60" lane="e0_0" slope="0.00"/>
    </timestep>
    <timestep time="41.00">
        <vehicle id="ego" x="70.22" y="-1.60" angle="90.00" type="ego_type" speed="3.25" pos="70.22" lane="e0_0" slope="0.00"/>