<?xml version="1.0" encoding="UTF-8"?>

<!-- generated on 2026-05-13 21:30:28 by Eclipse SUMO sumo Version 1.24.0
<sumoConfiguration xmlns:xsi="http://www.w3.org/2001/XMLSchema-instance" xsi:noNamespaceSchemaLocation="http://sumo.dlr.de/xsd/sumoConfiguration.xsd">

    <input>
        <net-file value="scenarios/simple_arterial/simple_arterial.net.xml"/>
        <route-files value="scenarios/simple_arterial/simple_arterial.rou.xml"/>
        <additional-files value="scenarios/simple_arterial/simple_arterial.tls.xml"/>
    </input>

    <output>
        <fcd-output value="runs/fcd_rlhf/episode_00005_seed_205.fcd.xml"/>
    </output>

    <time>
        <begin value="0"/>
        <end value="900"/>
        <step-length value="0.5"/>
    </time>

    <report>
        <no-warnings value="true"/>
    </report>

    <traci_server>
        <remote-port value="22810"/>
    </traci_server>

    <random_number>
        <seed value="205"/>
    </random_number>

</sumoConfiguration>
-->

<fcd-export xmlns:xsi="http://www.w3.org/2001/XMLSchema-instance" xsi:noNamespaceSchemaLocation="http://sumo.dlr.de/xsd/fcd_file.xsd">
    <timestep time="0.00"/>
    <timestep time="0.50"/>
    <timestep time="1.00"/>
    <timestep time="1.50"/>
    <timestep time="2.00"/>
    <timestep time="2.50"/>
    <timestep time="3.00"/>
    <timestep time="3.50"/>
    <timestep time="4.00"/>
    <timestep time="4.50"/>
    <timestep time="5.00"/>
    <timestep time="5.50"/>
    <timestep time="6.00"/>
    <timestep time="6.50"/>
    <timestep time="7.00"/>
    <timestep time="7.50"/>
    <timestep time="8.00"/>
    <timestep time="8.50"/>
    <timestep time="9.00"/>
    <timestep time="9.50"/>
    <timestep time="10.00"/>
    <timestep time="10.50"/>
    <timestep time="11.00"/>
    <timestep time="11.50"/>
    <timestep time="12.00"/>
    <timestep time="12.50"/>
    <timestep time="13.00"/>
    <timestep time="13.50"/>
    <timestep time="14.00"/>
    <timestep time="14.50"/>
    <timestep time="15.00"/>
    <timestep time="15.50"/>
    <timestep time="16.00"/>
    <timestep time="16.50"/>
    <timestep time="17.00"/>
    <timestep time="17.50"/>
    <timestep time="18.00"/>
    <timestep time="18.50"/>
    <timestep time="19.00">
        <vehicle id="background.0" x="5.10" y="-1.60" angle="90.00" type="human" speed="13.89" pos="5.10" lane="e0_0" slope="0.00"/>
    </timestep>
    <timestep time="19.50">
        <vehicle id="background.0" x="11.94" y="-1.60" angle="90.00" type="human" speed="13.68" pos="11.94" lane="e0_0" slope="0.00"/>
    </timestep>
    <timestep time="20.00">
        <vehicle id="background.0" x="18.63" y="-1.60" angle="90.00" type="human" speed="13.39" pos="18.63" lane="e0_0" slope="0.00"/>
    </timestep>
    <timestep time="20.50">
        <vehicle id="background.0" x="25.46" y="-1.60" angle="90.00" type="human" speed="13.65" pos="25.46" lane="e0_0" slope="0.00"/>
    </timestep>
    <timestep time="21.00">
        <vehicle id="background.0" x="32.16" y="-1.60" angle="90.00" type="human" speed="13.41" pos="32.16" lane="e0_0" slope="0.00"/>
    </timestep>
    <timestep time="21.50">
        <vehicle id="background.0" x="39.10" y="-1.60" angle="90.00" type="human" speed="13.87" pos="39.10" lane="e0_0" slope="0.00"/>
    </timestep>
    <timestep time="22.00">
        <vehicle id="background.0" x="45.81" y="-1.60" angle="90.00" type="human" speed="13.43" pos="45.81" lane="e0_0" slope="0.00"/>
    </timestep>
    <timestep time="22.50">
        <vehicle id="background.0" x="52.61" y="-1.60" angle="90.00" type="human" speed="13.60" pos="52.61" lane="e0_0" slope="0.00"/>
    </timestep>
    <timestep time="23.00">
        <vehicle id="background.0" x="59.53" y="-1.60" angle="90.00" type="human" speed="13.83" pos="59.53" lane="e0_0" slope="0.00"/>
    </timestep>
    <timestep time="23.50">
        <vehicle id="background.0" x="66.25" y="-1.60" angle="90.00" type="human" speed="13.45" pos="66.25" lane="e0_0" slope="0.00"/>
    </timestep>
    <timestep time="24.00">
        <vehicle id="background.0" x="72.99" y="-1.60" angle="90.00" type="human" speed="13.49" pos="72.99" lane="e0_0" slope="0.00"/>
    </timestep>
    <timestep time="24.50">
        <vehicle id="background.0" x="79.78" y="-1.60" angle="90.00" type="human" speed="13.58" pos="79.78" lane="e0_0" slope="0.00"/>
    </timestep>
    <timestep time="25.00">
        <vehicle id="background.0" x="86.64" y="-1.60" angle="90.00" type="human" speed="13.72" pos="86.64" lane="e0_0" slope="0.00"/>
    </timestep>
    <timestep time="25.50">
        <vehicle id="background.0" x="93.54" y="-1.60" angle="90.00" type="human" speed="13.80" pos="93.54" lane="e0_0" slope="0.00"/>
    </timestep>
    <timestep time="26.00">
        <vehicle id="background.0" x="100.30" y="-1.60" angle="90.00" type="human" speed="13.52" pos="100.30" lane="e0_0" slope="0.00"/>
    </timestep>
    <timestep time="26.50">
        <vehicle id="background.0" x="107.08" y="-1.60" angle="90.00" type="human" speed="13.56" pos="107.08" lane="e0_0" slope="0.00"/>
    </timestep>
    <timestep time="27.00">
        <vehicle id="background.0" x="113.92" y="-1.60" angle="90.00" type="human" speed="13.69" pos="113.92" lane="e0_0" slope="0.00"/>
    </timestep>
    <timestep time="27.50">
        <vehicle id="background.0" x="120.76" y="-1.60" angle="90.00" type="human" speed="13.66" pos="120.76" lane="e0_0" slope="0.00"/>
    </timestep>
    <timestep time="28.00">
        <vehicle id="background.0" x="127.49" y="-1.60" angle="90.00" type="human" speed="13.47" pos="127.49" lane="e0_0" slope="0.00"/>
    </timestep>
    <timestep time="28.50">
        <vehicle id="background.0" x="134.37" y="-1.60" angle="90.00" type="human" speed="13.76" pos="134.37" lane="e0_0" slope="0.00"/>
    </timestep>
    <timestep time="29.00">
        <vehicle id="background.0" x="141.20" y="-1.60" angle="90.00" type="human" speed="13.66" pos="141.20" lane="e0_0" slope="0.00"/>
    </timestep>
    <timestep time="29.50">
        <vehicle id="background.0" x="147.91" y="-1.60" angle="90.00" type="human" speed="13.42" pos="147.91" lane="e0_0" slope="0.00"/>
    </timestep>
    <timestep time="30.00">
        <vehicle id="background.0" x="154.84" y="-1.60" angle="90.00" type="human" speed="13.85" pos="154.84" lane="e0_0" slope="0.00"/>
    </timestep>
    <timestep time="30.50">
        <vehicle id="background.0" x="161.67" y="-1.60" angle="90.00" type="human" speed="13.66" pos="161.67" lane="e0_0" slope="0.00"/>
    </timestep>
    <timestep time="31.00">
        <vehicle id="background.0" x="168.39" y="-1.60" angle="90.00" type="human" speed="13.44" pos="168.39" lane="e0_0" slope="0.00"/>
    </timestep>
    <timestep time="31.50">
        <vehicle id="background.0" x="175.25" y="-1.60" angle="90.00" type="human" speed="13.73" pos="175.25" lane="e0_0" slope="0.00"/>
    </timestep>
    <timestep time="32.00">
        <vehicle id="background.0" x="182.05" y="-1.60" angle="90.00" type="human" speed="13.60" pos="182.05" lane="e0_0" slope="0.00"/>
    </timestep>
    <timestep time="32.50">
        <vehicle id="background.0" x="188.94" y="-1.60" angle="90.00" type="human" speed="13.77" pos="188.94" lane="e0_0" slope="0.00"/>
    </timestep>
    <timestep time="33.00">
        <vehicle id="background.0" x="195.64" y="-1.60" angle="90.00" type="human" speed="13.39" pos="195.64" lane="e0_0" slope="0.00"/>
    </timestep>
    <timestep time="33.50">
        <vehicle id="background.0" x="202.58" y="-1.60" angle="90.00" type="human" speed="13.88" pos="202.58" lane="e0_0" slope="0.00"/>
    </timestep>
    <timestep time="34.00">
        <vehicle id="background.0" x="209.47" y="-1.60" angle="90.00" type="human" speed="13.79" pos="209.47" lane="e0_0" slope="0.00"/>
    </timestep>
    <timestep time="34.50">
        <vehicle id="background.0" x="216.37" y="-1.60" angle="90.00" type="human" speed="13.79" pos="216.37" lane="e0_0" slope="0.00"/>
    </timestep>
    <timestep time="35.00">
        <vehicle id="background.0" x="223.17" y="-1.60" angle="90.00" type="human" speed="13.60" pos="223.17" lane="e0_0" slope="0.00"/>
    </timestep>
    <timestep time="35.50">
        <vehicle id="background.0" x="229.92" y="-1.60" angle="90.00" type="human" speed="13.51" pos="229.92" lane="e0_0" slope="0.00"/>
    </timestep>
    <timestep time="36.00">
        <vehicle id="background.0" x="236.73" y="-1.60" angle="90.00" type="human" speed="13.62" pos="236.73" lane="e0_0" slope="0.00"/>
    </timestep>
    <timestep time="36.50">
        <vehicle id="background.0" x="243.60" y="-1.60" angle="90.00" type="human" speed="13.74" pos="243.60" lane="e0_0" slope="0.00"/>
    </timestep>
    <timestep time="37.00">
        <vehicle id="background.0" x="250.39" y="-1.60" angle="90.00" type="human" speed="13.59" pos="250.39" lane="e0_0" slope="0.00"/>
    </timestep>
    <timestep time="37.50">
        <vehicle id="background.0" x="257.17" y="-1.60" angle="90.00" type="human" speed="13.54" pos="257.17" lane="e0_0" slope="0.00"/>
    </timestep>
    <timestep time="38.00">
        <vehicle id="background.0" x="264.05" y="-1.60" angle="90.00" type="human" speed="13.77" pos="264.05" lane="e0_0" slope="0.00"/>
    </timestep>
    <timestep time="38.50">
        <vehicle id="background.0" x="270.85" y="-1.60" angle="90.00" type="human" speed="13.61" pos="270.85" lane="e0_0" slope="0.00"/>
    </timestep>
    <timestep time="39.00">
        <vehicle id="background.0" x="277.62" y="-1.60" angle="90.00" type="human" speed="13.53" pos="277.62" lane="e0_0" slope="0.00"/>
    </timestep>
    <timestep time="39.50">
        <vehicle id="background.0" x="284.50" y="-1.60" angle="90.00" type="human" speed="13.76" pos="284.50" lane="e0_0" slope="0.00"/>
    </timestep>
    <timestep time="40.00">
        <vehicle id="background.0" x="291.39" y="-1.60" angle="90.00" type="human" speed="13.78" pos="291.39" lane="e0_0" slope="0.00"/>
    </timestep>
    <timestep time="40.50">
        <vehicle id="background.0" x="298.22" y="-1.60" angle="90.00" type="human" speed="13.65" pos="298.22" lane="e0_0" slope="0.00"/>
    </timestep>
    <timestep time="41.00">
        <vehicle id="background.0" x="304.95" y="-1.60" angle="90.00" type="human" speed="13.66" pos="4.95" lane="e1_0" slope="0.00"/>
    </timestep>
    <timestep time="41.50">
        <vehicle id="background.0" x="311.77" y="-1.60" angle="90.00" type="human" speed="13.64" pos="11.77" lane="e1_0" slope="0.00"/>
    </timestep>
    <timestep time="42.00">
        <vehicle id="background.0" x="318.50" y="-1.60" angle="90.00" type="human" speed="13.47" pos="18.50" lane="e1_0" slope="0.00"/>
        <vehicle id="background.1" x="5.10" y="-1.60" angle="90.00" type="human" speed="13.89" pos="5.10" lane="e0_0" slope="0.00"/>
    </timestep>
    <timestep time="42.50">
        <vehicle id="background.0" x="325.35" y="-1.60" angle="90.00" type="human" speed="13.71" pos="25.35" lane="e1_0" slope="0.00"/>
        <vehicle id="background.1" x="11.88" y="-1.60" angle="90.00" type="human" speed="13.55" pos="11.88" lane="e0_0" slope="0.00"/>
    </timestep>
    <timestep time="43.00">
        <vehicle id="background.0" x="332.09" y="-1.60" angle="90.00" type="human" speed="13.48" pos="32.09" lane="e1_0" slope="0.00"/>
        <vehicle id="background.1" x="18.61" y="-1.60" angle="90.00" type="human" speed="13.46" pos="18.61" lane="e0_0" slope="0.00"/>
    </timestep>
    <timestep time="43.50">
        <vehicle id="background.0" x="338.92" y="-1.60" angle="90.00" type="human" speed="13.67" pos="38.92" lane="e1_0" slope="0.00"/>
        <vehicle id="background.1" x="25.44" y="-1.60" angle="90.00" type="human" speed="13.67" pos="25.44" lane="e0_0" slope="0.00"/>
    </timestep>
    <timestep time="44.00">
        <vehicle id="background.0" x="345.64" y="-1.60" angle="90.00" type="human" speed="13.43" pos="45.64" lane="e1_0" slope="0.00"/>
        <vehicle id="background.1" x="32.33" y="-1.60" angle="90.00" type="human" speed="13.78" pos="32.33" lane="e0_0" slope="0.00"/>
    </timestep>
    <timestep time="44.50">
        <vehicle id="background.1" x="39.21" y="-1.60" angle="90.00" type="human" speed="13.76" pos="39.21" lane="e0_0" slope="0.00"/>
    </timestep>
    <timestep time="45.00">
        <vehicle id="background.1" x="45.96" y="-1.60" angle="90.00" type="human" speed="13.50" pos="45.96" lane="e0_0" slope="0.00"/>
    </timestep>
    <timestep time="45.50">
        <vehicle id="background.1" x="52.83" y="-1.60" angle="90.00" type="human" speed="13.74" pos="52.83" lane="e0_0" slope="0.00"/>
    </timestep>
    <timestep time="46.00">
        <vehicle id="background.1" x="59.76" y="-1.60" angle="90.00" type="human" speed="13.86" pos="59.76" lane="e0_0" slope="0.00"/>
    </timestep>
    <timestep time="46.50">
        <vehicle id="background.1" x="66.59" y="-1.60" angle="90.00" type="human" speed="13.66" pos="66.59" lane="e0_0" slope="0.00"/>
    </timestep>
    <timestep time="47.00">
        <vehicle id="background.1" x="73.38" y="-1.60" angle="90.00" type="human" speed="13.57" pos="73.38" lane="e0_0" slope="0.00"/>
    </timestep>
    <timestep time="47.50">
        <vehicle id="background.1" x="80.26" y="-1.60" angle="90.00" type="human" speed="13.77" pos="80.26" lane="e0_0" slope="0.00"/>
    </timestep>
    <timestep time="48.00">
        <vehicle id="background.1" x="87.02" y="-1.60" angle="90.00" type="human" speed="13.52" pos="87.02" lane="e0_0" slope="0.00"/>
    </timestep>
    <timestep time="48.50">
        <vehicle id="background.1" x="93.88" y="-1.60" angle="90.00" type="human" speed="13.71" pos="93.88" lane="e0_0" slope="0.00"/>
    </timestep>
    <timestep time="49.00">
        <vehicle id="background.1" x="100.65" y="-1.60" angle="90.00" type="human" speed="13.54" pos="100.65" lane="e0_0" slope="0.00"/>
    </timestep>
    <timestep time="49.50">
        <vehicle id="background.1" x="107.46" y="-1.60" angle="90.00" type="human" speed="13.63" pos="107.46" lane="e0_0" slope="0.00"/>
    </timestep>
    <timestep time="50.00">
        <vehicle id="background.1" x="114.38" y="-1.60" angle="90.00" type="human" speed="13.83" pos="114.38" lane="e0_0" slope="0.00"/>
    </timestep>
    <timestep time="50.50">
        <vehicle id="background.1" x="121.15" y="-1.60" angle="90.00" type="human" speed="13.55" pos="121.15" lane="e0_0" slope="0.00"/>
    </timestep>
    <timestep time="51.00">
        <vehicle id="background.1" x="127.95" y="-1.60" angle="90.00" type="human" speed="13.59" pos="127.95" lane="e0_0" slope="0.00"/>
    </timestep>
    <timestep time="51.50">
        <vehicle id="background.1" x="134.84" y="-1.60" angle="90.00" type="human" speed="13.80" pos="134.84" lane="e0_0" slope="0.00"/>
    </timestep>
    <timestep time="52.00">
        <vehicle id="background.1" x="141.60" y="-1.60" angle="90.00" type="human" speed="13.51" pos="141.60" lane="e0_0" slope="0.00"/>
    </timestep>
    <timestep time="52.50">
        <vehicle id="background.1" x="148.39" y="-1.60" angle="90.00" type="human" speed="13.59" pos="148.39" lane="e0_0" slope="0.00"/>
    </timestep>
    <timestep time="53.00">
        <vehicle id="background.1" x="155.14" y="-1.60" angle="90.00" type="human" speed="13.50" pos="155.14" lane="e0_0" slope="0.00"/>
    </timestep>
    <timestep time="53.50">
        <vehicle id="background.1" x="162.02" y="-1.60" angle="90.00" type="human" speed="13.76" pos="162.02" lane="e0_0" slope="0.00"/>
    </timestep>
    <timestep time="54.00">
        <vehicle id="background.1" x="168.77" y="-1.60" angle="90.00" type="human" speed="13.51" pos="168.77" lane="e0_0" slope="0.00"/>
    </timestep>
    <timestep time="54.50">
        <vehicle id="background.1" x="175.60" y="-1.60" angle="90.00" type="human" speed="13.65" pos="175.60" lane="e0_0" slope="0.00"/>
    </timestep>
    <timestep time="55.00">
        <vehicle id="background.1" x="182.32" y="-1.60" angle="90.00" type="human" speed="13.45" pos="182.32" lane="e0_0" slope="0.00"/>
    </timestep>
    <timestep time="55.50">
        <vehicle id="background.1" x="189.11" y="-1.60" angle="90.00" type="human" speed="13.57" pos="189.11" lane="e0_0" slope="0.00"/>
    </timestep>
    <timestep time="56.00">
        <vehicle id="background.1" x="195.84" y="-1.60" angle="90.00" type="human" speed="13.47" pos="195.84" lane="e0_0" slope="0.00"/>
    </timestep>
    <timestep time="56.50">
        <vehicle id="background.1" x="202.67" y="-1.60" angle="90.00" type="human" speed="13.65" pos="202.67" lane="e0_0" slope="0.00"/>
    </timestep>
    <timestep time="57.00">
        <vehicle id="background.1" x="209.41" y="-1.60" angle="90.00" type="human" speed="13.47" pos="209.41" lane="e0_0" slope="0.00"/>
    </timestep>
    <timestep time="57.50">
        <vehicle id="background.1" x="216.34" y="-1.60" angle="90.00" type="human" speed="13.86" pos="216.34" lane="e0_0" slope="0.00"/>
        <vehicle id="background.2" x="5.10" y="-1.60" angle="90.00" type="human" speed="13.24" pos="5.10" lane="e0_0" slope="0.00"/>
    </timestep>
    <timestep time="58.00">
        <vehicle id="background.1" x="223.24" y="-1.60" angle="90.00" type="human" speed="13.81" pos="223.24" lane="e0_0" slope="0.00"/>
        <vehicle id="background.2" x="11.53" y="-1.60" angle="90.00" type="human" speed="12.85" pos="11.53" lane="e0_0" slope="0.00"/>
    </timestep>
    <timestep time="58.50">
        <vehicle id="background.1" x="229.96" y="-1.60" angle="90.00" type="human" speed="13.44" pos="229.96" lane="e0_0" slope="0.00"/>
        <vehicle id="background.2" x="18.11" y="-1.60" angle="90.00" type="human" speed="13.17" pos="18.11" lane="e0_0" slope="0.00"/>
    </timestep>
    <timestep time="59.00">
        <vehicle id="background.1" x="236.76" y="-1.60" angle="90.00" type="human" speed="13.59" pos="236.76" lane="e0_0" slope="0.00"/>
        <vehicle id="background.2" x="24.69" y="-1.60" angle="90.00" type="human" speed="13.15" pos="24.69" lane="e0_0" slope="0.00"/>
    </timestep>
    <timestep time="59.50">
        <vehicle id="background.1" x="243.59" y="-1.60" angle="90.00" type="human" speed="13.67" pos="243.59" lane="e0_0" slope="0.00"/>
        <vehicle id="background.2" x="31.10" y="-1.60" angle="90.00" type="human" speed="12.83" pos="31.10" lane="e0_0" slope="0.00"/>
    </timestep>
    <timestep time="60.00">
        <vehicle id="background.1" x="250.32" y="-1.60" angle="90.00" type="human" speed="13.46" pos="250.32" lane="e0_0" slope="0.00"/>
        <vehicle id="background.2" x="37.57" y="-1.60" angle="90.00" type="human" speed="12.95" pos="37.57" lane="e0_0" slope="0.00"/>
        <vehicle id="background.3" x="5.10" y="-1.60" angle="90.00" type="human" speed="11.60" pos="5.10" lane="e0_0" slope="0.00"/>
    </timestep>
    <timestep time="60.50">
        <vehicle id="background.1" x="257.05" y="-1.60" angle="90.00" type="human" speed="13.46" pos="257.05" lane="e0_0" slope="0.00"/>
        <vehicle id="background.2" x="44.15" y="-1.60" angle="90.00" type="human" speed="13.14" pos="44.15" lane="e0_0" slope="0.00"/>
        <vehicle id="background.3" x="10.67" y="-1.60" angle="90.00" type="human" speed="11.14" pos="10.67" lane="e0_0" slope="0.00"/>
    </timestep>
    <timestep time="61.00">
        <vehicle id="background.1" x="263.94" y="-1.60" angle="90.00" type="human" speed="13.78" pos="263.94" lane="e0_0" slope="0.00"/>
        <vehicle id="background.2" x="50.76" y="-1.60" angle="90.00" type="human" speed="13.23" pos="50.76" lane="e0_0" slope="0.00"/>
        <vehicle id="background.3" x="16.44" y="-1.60" angle="90.00" type="human" speed="11.54" pos="16.44" lane="e0_0" slope="0.00"/>
    </timestep>
    <timestep time="61.50">
        <vehicle id="background.1" x="270.74" y="-1.60" angle="90.00" type="human" speed="13.61" pos="270.74" lane="e0_0" slope="0.00"/>
        <vehicle id="background.2" x="57.21" y="-1.60" angle="90.00" type="human" speed="12.91" pos="57.21" lane="e0_0" slope="0.00"/>
        <vehicle id="background.3" x="22.00" y="-1.60" angle="90.00" type="human" speed="11.11" pos="22.00" lane="e0_0" slope="0.00"/>
        <vehicle id="background.4" x="5.10" y="-1.60" angle="90.00" type="human" speed="10.54" pos="5.10" lane="e0_0" slope="0.00"/>
    </timestep>
    <timestep time="62.00">
        <vehicle id="background.1" x="277.52" y="-1.60" angle="90.00" type="human" speed="13.55" pos="277.52" lane="e0_0" slope="0.00"/>
        <vehicle id="background.2" x="63.80" y="-1.60" angle="90.00" type="human" speed="13.17" pos="63.80" lane="e0_0" slope="0.00"/>
        <vehicle id="background.3" x="27.57" y="-1.60" angle="90.00" type="human" speed="11.14" pos="27.57" lane="e0_0" slope="0.00"/>
        <vehicle id="background.4" x="10.26" y="-1.60" angle="90.00" type="human" speed="10.33" pos="10.26" lane="e0_0" slope="0.00"/>
    </timestep>
    <timestep time="62.50">
        <vehicle id="background.1" x="283.87" y="-1.60" angle="90.00" type="human" speed="12.69" pos="283.87" lane="e0_0" slope="0.00"/>
        <vehicle id="background.2" x="70.31" y="-1.60" angle="90.00" type="human" speed="13.03" pos="70.31" lane="e0_0" slope="0.00"/>
        <vehicle id="background.3" x="33.14" y="-1.60" angle="90.00" type="human" speed="11.13" pos="33.14" lane="e0_0" slope="0.00"/>
        <vehicle id="background.4" x="15.60" y="-1.60" angle="90.00" type="human" speed="10.67" pos="15.60" lane="e0_0" slope="0.00"/>
    </timestep>
    <timestep time="63.00">
        <vehicle id="background.1" x="289.09" y="-1.60" angle="90.00" type="human" speed="10.44" pos="289.09" lane="e0_0" slope="0.00"/>
        <vehicle id="background.2" x="76.83" y="-1.60" angle="90.00" type="human" speed="13.04" pos="76.83" lane="e0_0" slope="0.00"/>
        <vehicle id="background.3" x="38.90" y="-1.60" angle="90.00" type="human" speed="11.52" pos="38.90" lane="e0_0" slope="0.00"/>
        <vehicle id="background.4" x="20.86" y="-1.60" angle="90.00" type="human" speed="10.53" pos="20.86" lane="e0_0" slope="0.00"/>
    </timestep>
    <timestep time="63.50">
        <vehicle id="background.1" x="293.18" y="-1.60" angle="90.00" type="human" speed="8.19" pos="293.18" lane="e0_0" slope="0.00"/>
        <vehicle id="background.2" x="83.22" y="-1.60" angle="90.00" type="human" speed="12.77" pos="83.22" lane="e0_0" slope="0.00"/>
        <vehicle id="background.3" x="44.56" y="-1.60" angle="90.00" type="human" speed="11.33" pos="44.56" lane="e0_0" slope="0.00"/>
        <vehicle id="background.4" x="26.46" y="-1.60" angle="90.00" type="human" speed="11.19" pos="26.46" lane="e0_0" slope="0.00"/>
    </timestep>
    <timestep time="64.00">
        <vehicle id="background.1" x="296.16" y="-1.60" angle="90.00" type="human" speed="5.95" pos="296.16" lane="e0_0" slope="0.00"/>
        <vehicle id="background.2" x="89.65" y="-1.60" angle="90.00" type="human" speed="12.86" pos="89.65" lane="e0_0" slope="0.00"/>
        <vehicle id="background.3" x="50.14" y="-1.60" angle="90.00" type="human" speed="11.16" pos="50.14" lane="e0_0" slope="0.00"/>
        <vehicle id="background.4" x="31.85" y="-1.60" angle="90.00" type="human" speed="10.79" pos="31.85" lane="e0_0" slope="0.00"/>
    </timestep>
    <timestep time="64.50">
        <vehicle id="background.1" x="298.01" y="-1.60" angle="90.00" type="human" speed="3.71" pos="298.01" lane="e0_0" slope="0.00"/>
        <vehicle id="background.2" x="96.16" y="-1.60" angle="90.00" type="human" speed="13.02" pos="96.16" lane="e0_0" slope="0.00"/>
        <vehicle id="background.3" x="55.81" y="-1.60" angle="90.00" type="human" speed="11.34" pos="55.81" lane="e0_0" slope="0.00"/>
        <vehicle id="background.4" x="37.33" y="-1.60" angle="90.00" type="human" speed="10.95" pos="37.33" lane="e0_0" slope="0.00"/>
    </timestep>
    <timestep time="65.00">
        <vehicle id="background.1" x="298.80" y="-1.60" angle="90.00" type="human" speed="1.59" pos="298.80" lane="e0_0" slope="0.00"/>
        <vehicle id="background.2" x="102.53" y="-1.60" angle="90.00" type="human" speed="12.75" pos="102.53" lane="e0_0" slope="0.00"/>
        <vehicle id="background.3" x="61.49" y="-1.60" angle="90.00" type="human" speed="11.35" pos="61.49" lane="e0_0" slope="0.00"/>
        <vehicle id="background.4" x="42.83" y="-1.60" angle="90.00" type="human" speed="11.00" pos="42.83" lane="e0_0" slope="0.00"/>
    </timestep>
    <timestep time="65.50">
        <vehicle id="background.1" x="298.97" y="-1.60" angle="90.00" type="human" speed="0.33" pos="298.97" lane="e0_0" slope="0.00"/>
        <vehicle id="background.2" x="109.15" y="-1.60" angle="90.00" type="human" speed="13.22" pos="109.15" lane="e0_0" slope="0.00"/>
        <vehicle id="background.3" x="67.04" y="-1.60" angle="90.00" type="human" speed="11.12" pos="67.04" lane="e0_0" slope="0.00"/>
        <vehicle id="background.4" x="48.42" y="-1.60" angle="90.00" type="human" speed="11.18" pos="48.42" lane="e0_0" slope="0.00"/>
    </timestep>
    <timestep time="66.00">
        <vehicle id="background.1" x="299.00" y="-1.60" angle="90.00" type="human" speed="0.06" pos="299.00" lane="e0_0" slope="0.00"/>
        <vehicle id="background.2" x="115.57" y="-1.60" angle="90.00" type="human" speed="12.85" pos="115.57" lane="e0_0" slope="0.00"/>
        <vehicle id="background.3" x="72.70" y="-1.60" angle="90.00" type="human" speed="11.31" pos="72.70" lane="e0_0" slope="0.00"/>
        <vehicle id="background.4" x="53.80" y="-1.60" angle="90.00" type="human" speed="10.77" pos="53.80" lane="e0_0" slope="0.00"/>
    </timestep>
    <timestep time="66.50">
        <vehicle id="background.1" x="299.00" y="-1.60" angle="90.00" type="human" speed="0.01" pos="299.00" lane="e0_0" slope="0.00"/>
        <vehicle id="background.2" x="121.95" y="-1.60" angle="90.00" type="human" speed="12.77" pos="121.95" lane="e0_0" slope="0.00"/>
        <vehicle id="background.3" x="78.48" y="-1.60" angle="90.00" type="human" speed="11.56" pos="78.48" lane="e0_0" slope="0.00"/>
        <vehicle id="background.4" x="59.25" y="-1.60" angle="90.00" type="human" speed="10.89" pos="59.25" lane="e0_0" slope="0.00"/>
    </timestep>
    <timestep time="67.00">
        <vehicle id="background.1" x="299.00" y="-1.60" angle="90.00" type="human" speed="0.00" pos="299.00" lane="e0_0" slope="0.00"/>
        <vehicle id="background.2" x="128.47" y="-1.60" angle="90.00" type="human" speed="13.04" pos="128.47" lane="e0_0" slope="0.00"/>
        <vehicle id="background.3" x="84.21" y="-1.60" angle="90.00" type="human" speed="11.46" pos="84.21" lane="e0_0" slope="0.00"/>
        <vehicle id="background.4" x="65.01" y="-1.60" angle="90.00" type="human" speed="11.53" pos="65.01" lane="e0_0" slope="0.00"/>
    </timestep>
    <timestep time="67.50">
        <vehicle id="background.1" x="299.00" y="-1.60" angle="90.00" type="human" speed="0.00" pos="299.00" lane="e0_0" slope="0.00"/>
        <vehicle id="background.2" x="134.96" y="-1.60" angle="90.00" type="human" speed="12.98" pos="134.96" lane="e0_0" slope="0.00"/>
        <vehicle id="background.3" x="89.95" y="-1.60" angle="90.00" type="human" speed="11.47" pos="89.95" lane="e0_0" slope="0.00"/>
        <vehicle id="background.4" x="70.67" y="-1.60" angle="90.00" type="human" speed="11.32" pos="70.67" lane="e0_0" slope="0.00"/>
    </timestep>
    <timestep time="68.00">
        <vehicle id="background.1" x="299.00" y="-1.60" angle="90.00" type="human" speed="0.00" pos="299.00" lane="e0_0" slope="0.00"/>
        <vehicle id="background.2" x="141.52" y="-1.60" angle="90.00" type="human" speed="13.11" pos="141.52" lane="e0_0" slope="0.00"/>
        <vehicle id="background.3" x="95.57" y="-1.60" angle="90.00" type="human" speed="11.25" pos="95.57" lane="e0_0" slope="0.00"/>
        <vehicle id="background.4" x="76.40" y="-1.60" angle="90.00" type="human" speed="11.45" pos="76.40" lane="e0_0" slope="0.00"/>
    </timestep>
    <timestep time="68.50">
        <vehicle id="background.1" x="299.00" y="-1.60" angle="90.00" type="human" speed="0.00" pos="299.00" lane="e0_0" slope="0.00"/>
        <vehicle id="background.2" x="148.01" y="-1.60" angle="90.00" type="human" speed="12.98" pos="148.01" lane="e0_0" slope="0.00"/>
        <vehicle id="background.3" x="101.28" y="-1.60" angle="90.00" type="human" speed="11.41" pos="101.28" lane="e0_0" slope="0.00"/>
        <vehicle id="background.4" x="82.01" y="-1.60" angle="90.00" type="human" speed="11.23" pos="82.01" lane="e0_0" slope="0.00"/>
    </timestep>
    <timestep time="69.00">
        <vehicle id="background.1" x="299.00" y="-1.60" angle="90.00" type="human" speed="0.00" pos="299.00" lane="e0_0" slope="0.00"/>
        <vehicle id="background.2" x="154.38" y="-1.60" angle="90.00" type="human" speed="12.75" pos="154.38" lane="e0_0" slope="0.00"/>
        <vehicle id="background.3" x="106.91" y="-1.60" angle="90.00" type="human" speed="11.25" pos="106.91" lane="e0_0" slope="0.00"/>
        <vehicle id="background.4" x="87.74" y="-1.60" angle="90.00" type="human" speed="11.44" pos="87.74" lane="e0_0" slope="0.00"/>
    </timestep>
    <timestep time="69.50">
        <vehicle id="background.1" x="299.00" y="-1.60" angle="90.00" type="human" speed="0.00" pos="299.00" lane="e0_0" slope="0.00"/>
        <vehicle id="background.2" x="160.86" y="-1.60" angle="90.00" type="human" speed="12.95" pos="160.86" lane="e0_0" slope="0.00"/>
        <vehicle id="background.3" x="112.49" y="-1.60" angle="90.00" type="human" speed="11.17" pos="112.49" lane="e0_0" slope="0.00"/>
        <vehicle id="background.4" x="93.27" y="-1.60" angle="90.00" type="human" speed="11.08" pos="93.27" lane="e0_0" slope="0.00"/>
    </timestep>
    <timestep time="70.00">
        <vehicle id="background.1" x="299.00" y="-1.60" angle="90.00" type="human" speed="0.00" pos="299.00" lane="e0_0" slope="0.00"/>
        <vehicle id="background.2" x="167.44" y="-1.60" angle="90.00" type="human" speed="13.16" pos="167.44" lane="e0_0" slope="0.00"/>