<?xml version="1.0" encoding="UTF-8"?>

<!-- generated on 2026-05-13 21:30:35 by Eclipse SUMO sumo Version 1.24.0
<sumoConfiguration xmlns:xsi="http://www.w3.org/2001/XMLSchema-instance" xsi:noNamespaceSchemaLocation="http://sumo.dlr.de/xsd/sumoConfiguration.xsd">

    <input>
        <net-file value="scenarios/simple_arterial/simple_arterial.net.xml"/>
        <route-files value="scenarios/simple_arterial/simple_arterial.rou.xml"/>
        <additional-files value="scenarios/simple_arterial/simple_arterial.tls.xml"/>
    </input>

    <output>
        <fcd-output value="runs/fcd_rlhf/episode_00008_seed_208.fcd.xml"/>
    </output>

    <time>
        <begin value="0"/>
        <end value="900"/>
        <step-length value="0.5"/>
    </time>

    <report>
        <no-warnings value="true"/>
    </report>

    <traci_server>
        <remote-port value="22810"/>
    </traci_server>

    <random_number>
        <seed value="208"/>
    </random_number>

</sumoConfiguration>
-->

<fcd-export xmlns:xsi="http://www.w3.org/2001/XMLSchema-instance" xsi:noNamespaceSchemaLocation="http://sumo.dlr.de/xsd/fcd_file.xsd">
    <timestep time="0.00"/>
    <timestep time="0.50"/>
    <timestep time="1.00"/>
    <timestep time="1.50">
        <vehicle id="background.0" x="5.10" y="-1.60" angle="90.00" type="human" speed="13.01" pos="5.10" lane="e0_0" slope="0.00"/>
    </timestep>
    <timestep time="2.00">
        <vehicle id="background.0" x="11.39" y="-1.60" angle="90.00" type="human" speed="12.59" pos="11.39" lane="e0_0" slope="0.00"/>
    </timestep>
    <timestep time="2.50">
        <vehicle id="background.0" x="17.68" y="-1.60" angle="90.00" type="human" speed="12.57" pos="17.68" lane="e0_0" slope="0.00"/>
    </timestep>
    <timestep time="3.00">
        <vehicle id="background.0" x="24.10" y="-1.60" angle="90.00" type="human" speed="12.84" pos="24.10" lane="e0_0" slope="0.00"/>
    </timestep>
    <timestep time="3.50">
        <vehicle id="background.0" x="30.52" y="-1.60" angle="90.00" type="human" speed="12.85" pos="30.52" lane="e0_0" slope="0.00"/>
    </timestep>
    <timestep time="4.00">
        <vehicle id="background.0" x="36.82" y="-1.60" angle="90.00" type="human" speed="12.60" pos="36.82" lane="e0_0" slope="0.00"/>
    </timestep>
    <timestep time="4.50">
        <vehicle id="background.0" x="43.10" y="-1.60" angle="90.00" type="human" speed="12.55" pos="43.10" lane="e0_0" slope="0.00"/>
    </timestep>
    <timestep time="5.00">
        <vehicle id="background.0" x="49.45" y="-1.60" angle="90.00" type="human" speed="12.69" pos="49.45" lane="e0_0" slope="0.00"/>
    </timestep>
    <timestep time="5.50">
        <vehicle id="background.0" x="55.72" y="-1.60" angle="90.00" type="human" speed="12.54" pos="55.72" lane="e0_0" slope="0.00"/>
    </timestep>
    <timestep time="6.00">
        <vehicle id="background.0" x="62.13" y="-1.60" angle="90.00" type="human" speed="12.83" pos="62.13" lane="e0_0" slope="0.00"/>
    </timestep>
    <timestep time="6.50">
        <vehicle id="background.0" x="68.53" y="-1.60" angle="90.00" type="human" speed="12.79" pos="68.53" lane="e0_0" slope="0.00"/>
    </timestep>
    <timestep time="7.00">
        <vehicle id="background.0" x="74.86" y="-1.60" angle="90.00" type="human" speed="12.65" pos="74.86" lane="e0_0" slope="0.00"/>
    </timestep>
    <timestep time="7.50">
        <vehicle id="background.0" x="81.17" y="-1.60" angle="90.00" type="human" speed="12.62" pos="81.17" lane="e0_0" slope="0.00"/>
    </timestep>
    <timestep time="8.00">
        <vehicle id="background.0" x="87.60" y="-1.60" angle="90.00" type="human" speed="12.86" pos="87.60" lane="e0_0" slope="0.00"/>
    </timestep>
    <timestep time="8.50">
        <vehicle id="background.0" x="93.93" y="-1.60" angle="90.00" type="human" speed="12.67" pos="93.93" lane="e0_0" slope="0.00"/>
    </timestep>
    <timestep time="9.00">
        <vehicle id="background.0" x="100.41" y="-1.60" angle="90.00" type="human" speed="12.96" pos="100.41" lane="e0_0" slope="0.00"/>
    </timestep>
    <timestep time="9.50">
        <vehicle id="background.0" x="106.90" y="-1.60" angle="90.00" type="human" speed="12.97" pos="106.90" lane="e0_0" slope="0.00"/>
    </timestep>
    <timestep time="10.00">
        <vehicle id="background.0" x="113.19" y="-1.60" angle="90.00" type="human" speed="12.59" pos="113.19" lane="e0_0" slope="0.00"/>
    </timestep>
    <timestep time="10.50">
        <vehicle id="background.0" x="119.52" y="-1.60" angle="90.00" type="human" speed="12.66" pos="119.52" lane="e0_0" slope="0.00"/>
    </timestep>
    <timestep time="11.00">
        <vehicle id="background.0" x="125.94" y="-1.60" angle="90.00" type="human" speed="12.83" pos="125.94" lane="e0_0" slope="0.00"/>
    </timestep>
    <timestep time="11.50">
        <vehicle id="background.0" x="132.35" y="-1.60" angle="90.00" type="human" speed="12.84" pos="132.35" lane="e0_0" slope="0.00"/>
    </timestep>
    <timestep time="12.00">
        <vehicle id="background.0" x="138.75" y="-1.60" angle="90.00" type="human" speed="12.80" pos="138.75" lane="e0_0" slope="0.00"/>
    </timestep>
    <timestep time="12.50">
        <vehicle id="background.0" x="145.21" y="-1.60" angle="90.00" type="human" speed="12.92" pos="145.21" lane="e0_0" slope="0.00"/>
    </timestep>
    <timestep time="13.00">
        <vehicle id="background.0" x="151.49" y="-1.60" angle="90.00" type="human" speed="12.55" pos="151.49" lane="e0_0" slope="0.00"/>
    </timestep>
    <timestep time="13.50">
        <vehicle id="background.0" x="157.88" y="-1.60" angle="90.00" type="human" speed="12.79" pos="157.88" lane="e0_0" slope="0.00"/>
    </timestep>
    <timestep time="14.00">
        <vehicle id="background.0" x="164.32" y="-1.60" angle="90.00" type="human" speed="12.88" pos="164.32" lane="e0_0" slope="0.00"/>
    </timestep>
    <timestep time="14.50">
        <vehicle id="background.0" x="170.76" y="-1.60" angle="90.00" type="human" speed="12.88" pos="170.76" lane="e0_0" slope="0.00"/>
    </timestep>
    <timestep time="15.00">
        <vehicle id="background.0" x="177.25" y="-1.60" angle="90.00" type="human" speed="12.99" pos="177.25" lane="e0_0" slope="0.00"/>
    </timestep>
    <timestep time="15.50">
        <vehicle id="background.0" x="183.70" y="-1.60" angle="90.00" type="human" speed="12.90" pos="183.70" lane="e0_0" slope="0.00"/>
    </timestep>
    <timestep time="16.00">
        <vehicle id="background.0" x="189.96" y="-1.60" angle="90.00" type="human" speed="12.51" pos="189.96" lane="e0_0" slope="0.00"/>
    </timestep>
    <timestep time="16.50">
        <vehicle id="background.0" x="196.41" y="-1.60" angle="90.00" type="human" speed="12.90" pos="196.41" lane="e0_0" slope="0.00"/>
    </timestep>
    <timestep time="17.00">
        <vehicle id="background.0" x="202.73" y="-1.60" angle="90.00" type="human" speed="12.63" pos="202.73" lane="e0_0" slope="0.00"/>
    </timestep>
    <timestep time="17.50">
        <vehicle id="background.0" x="209.14" y="-1.60" angle="90.00" type="human" speed="12.84" pos="209.14" lane="e0_0" slope="0.00"/>
    </timestep>
    <timestep time="18.00">
        <vehicle id="background.0" x="215.63" y="-1.60" angle="90.00" type="human" speed="12.96" pos="215.63" lane="e0_0" slope="0.00"/>
    </timestep>
    <timestep time="18.50">
        <vehicle id="background.0" x="222.02" y="-1.60" angle="90.00" type="human" speed="12.80" pos="222.02" lane="e0_0" slope="0.00"/>
    </timestep>
    <timestep time="19.00">
        <vehicle id="background.0" x="228.37" y="-1.60" angle="90.00" type="human" speed="12.69" pos="228.37" lane="e0_0" slope="0.00"/>
    </timestep>
    <timestep time="19.50">
        <vehicle id="background.0" x="234.74" y="-1.60" angle="90.00" type="human" speed="12.75" pos="234.74" lane="e0_0" slope="0.00"/>
    </timestep>
    <timestep time="20.00">
        <vehicle id="background.0" x="241.16" y="-1.60" angle="90.00" type="human" speed="12.83" pos="241.16" lane="e0_0" slope="0.00"/>
    </timestep>
    <timestep time="20.50">
        <vehicle id="background.0" x="247.63" y="-1.60" angle="90.00" type="human" speed="12.95" pos="247.63" lane="e0_0" slope="0.00"/>
    </timestep>
    <timestep time="21.00">
        <vehicle id="background.0" x="253.95" y="-1.60" angle="90.00" type="human" speed="12.64" pos="253.95" lane="e0_0" slope="0.00"/>
    </timestep>
    <timestep time="21.50">
        <vehicle id="background.0" x="260.33" y="-1.60" angle="90.00" type="human" speed="12.76" pos="260.33" lane="e0_0" slope="0.00"/>
    </timestep>
    <timestep time="22.00">
        <vehicle id="background.0" x="266.76" y="-1.60" angle="90.00" type="human" speed="12.85" pos="266.76" lane="e0_0" slope="0.00"/>
    </timestep>
    <timestep time="22.50">
        <vehicle id="background.0" x="273.21" y="-1.60" angle="90.00" type="human" speed="12.91" pos="273.21" lane="e0_0" slope="0.00"/>
    </timestep>
    <timestep time="23.00">
        <vehicle id="background.0" x="279.51" y="-1.60" angle="90.00" type="human" speed="12.61" pos="279.51" lane="e0_0" slope="0.00"/>
    </timestep>
    <timestep time="23.50">
        <vehicle id="background.0" x="285.95" y="-1.60" angle="90.00" type="human" speed="12.87" pos="285.95" lane="e0_0" slope="0.00"/>
    </timestep>
    <timestep time="24.00">
        <vehicle id="background.0" x="292.26" y="-1.60" angle="90.00" type="human" speed="12.62" pos="292.26" lane="e0_0" slope="0.00"/>
    </timestep>
    <timestep time="24.50">
        <vehicle id="background.0" x="298.67" y="-1.60" angle="90.00" type="human" speed="12.82" pos="298.67" lane="e0_0" slope="0.00"/>
    </timestep>
    <timestep time="25.00">
        <vehicle id="background.0" x="305.05" y="-1.60" angle="90.00" type="human" speed="12.97" pos="5.05" lane="e1_0" slope="0.00"/>
    </timestep>
    <timestep time="25.50">
        <vehicle id="background.0" x="311.53" y="-1.60" angle="90.00" type="human" speed="12.96" pos="11.53" lane="e1_0" slope="0.00"/>
    </timestep>
    <timestep time="26.00">
        <vehicle id="background.0" x="317.92" y="-1.60" angle="90.00" type="human" speed="12.77" pos="17.92" lane="e1_0" slope="0.00"/>
    </timestep>
    <timestep time="26.50">
        <vehicle id="background.0" x="324.35" y="-1.60" angle="90.00" type="human" speed="12.86" pos="24.35" lane="e1_0" slope="0.00"/>
    </timestep>
    <timestep time="27.00">
        <vehicle id="background.0" x="330.63" y="-1.60" angle="90.00" type="human" speed="12.56" pos="30.63" lane="e1_0" slope="0.00"/>
    </timestep>
    <timestep time="27.50">
        <vehicle id="background.0" x="336.94" y="-1.60" angle="90.00" type="human" speed="12.62" pos="36.94" lane="e1_0" slope="0.00"/>
    </timestep>
    <timestep time="28.00">
        <vehicle id="background.0" x="343.33" y="-1.60" angle="90.00" type="human" speed="12.78" pos="43.33" lane="e1_0" slope="0.00"/>
    </timestep>
    <timestep time="28.50">
        <vehicle id="background.0" x="349.70" y="-1.60" angle="90.00" type="human" speed="12.76" pos="49.70" lane="e1_0" slope="0.00"/>
    </timestep>
    <timestep time="29.00"/>
    <timestep time="29.50"/>
    <timestep time="30.00"/>
    <timestep time="30.50"/>
    <timestep time="31.00"/>
    <timestep time="31.50"/>
    <timestep time="32.00"/>
    <timestep time="32.50"/>
    <timestep time="33.00"/>
    <timestep time="33.50"/>
    <timestep time="34.00"/>
    <timestep time="34.50"/>
    <timestep time="35.00"/>
    <timestep time="35.50"/>
    <timestep time="36.00"/>
    <timestep time="36.50"/>
    <timestep time="37.00"/>
    <timestep time="37.50"/>
    <timestep time="38.00"/>
    <timestep time="38.50"/>
    <timestep time="39.00"/>
    <timestep time="39.50"/>
    <timestep time="40.00">
        <vehicle id="background.1" x="5.10" y="-1.60" angle="90.00" type="human" speed="11.34" pos="5.10" lane="e0_0" slope="0.00"/>
    </timestep>
    <timestep time="40.50">
        <vehicle id="background.1" x="10.52" y="-1.60" angle="90.00" type="human" speed="10.85" pos="10.52" lane="e0_0" slope="0.00"/>
    </timestep>
    <timestep time="41.00">
        <vehicle id="background.1" x="16.00" y="-1.60" angle="90.00" type="human" speed="10.95" pos="16.00" lane="e0_0" slope="0.00"/>
    </timestep>
    <timestep time="41.50">
        <vehicle id="background.1" x="21.59" y="-1.60" angle="90.00" type="human" speed="11.19" pos="21.59" lane="e0_0" slope="0.00"/>
    </timestep>
    <timestep time="42.00">
        <vehicle id="background.1" x="27.19" y="-1.60" angle="90.00" type="human" speed="11.20" pos="27.19" lane="e0_0" slope="0.00"/>
    </timestep>
    <timestep time="42.50">
        <vehicle id="background.1" x="32.77" y="-1.60" angle="90.00" type="human" speed="11.16" pos="32.77" lane="e0_0" slope="0.00"/>
        <vehicle id="background.2" x="5.10" y="-1.60" angle="90.00" type="human" speed="13.28" pos="5.10" lane="e0_0" slope="0.00"/>
    </timestep>
    <timestep time="43.00">
        <vehicle id="background.1" x="38.42" y="-1.60" angle="90.00" type="human" speed="11.28" pos="38.42" lane="e0_0" slope="0.00"/>
        <vehicle id="background.2" x="11.53" y="-1.60" angle="90.00" type="human" speed="12.86" pos="11.53" lane="e0_0" slope="0.00"/>
    </timestep>
    <timestep time="43.50">
        <vehicle id="background.1" x="43.89" y="-1.60" angle="90.00" type="human" speed="10.94" pos="43.89" lane="e0_0" slope="0.00"/>
        <vehicle id="background.2" x="18.04" y="-1.60" angle="90.00" type="human" speed="13.03" pos="18.04" lane="e0_0" slope="0.00"/>
    </timestep>
    <timestep time="44.00">
        <vehicle id="background.1" x="49.50" y="-1.60" angle="90.00" type="human" speed="11.23" pos="49.50" lane="e0_0" slope="0.00"/>
        <vehicle id="background.2" x="24.46" y="-1.60" angle="90.00" type="human" speed="12.83" pos="24.46" lane="e0_0" slope="0.00"/>
    </timestep>
    <timestep time="44.50">
        <vehicle id="background.1" x="54.96" y="-1.60" angle="90.00" type="human" speed="10.91" pos="54.96" lane="e0_0" slope="0.00"/>
        <vehicle id="background.2" x="30.95" y="-1.60" angle="90.00" type="human" speed="12.99" pos="30.95" lane="e0_0" slope="0.00"/>
    </timestep>
    <timestep time="45.00">
        <vehicle id="background.1" x="60.46" y="-1.60" angle="90.00" type="human" speed="11.01" pos="60.46" lane="e0_0" slope="0.00"/>
        <vehicle id="background.2" x="37.07" y="-1.60" angle="90.00" type="human" speed="12.23" pos="37.07" lane="e0_0" slope="0.00"/>
    </timestep>
    <timestep time="45.50">
        <vehicle id="background.1" x="66.03" y="-1.60" angle="90.00" type="human" speed="11.13" pos="66.03" lane="e0_0" slope="0.00"/>
        <vehicle id="background.2" x="43.04" y="-1.60" angle="90.00" type="human" speed="11.95" pos="43.04" lane="e0_0" slope="0.00"/>
    </timestep>
    <timestep time="46.00">
        <vehicle id="background.1" x="71.47" y="-1.60" angle="90.00" type="human" speed="10.87" pos="71.47" lane="e0_0" slope="0.00"/>
        <vehicle id="background.2" x="49.17" y="-1.60" angle="90.00" type="human" speed="12.26" pos="49.17" lane="e0_0" slope="0.00"/>
    </timestep>
    <timestep time="46.50">
        <vehicle id="background.1" x="77.11" y="-1.60" angle="90.00" type="human" speed="11.29" pos="77.11" lane="e0_0" slope="0.00"/>
        <vehicle id="background.2" x="55.02" y="-1.60" angle="90.00" type="human" speed="11.69" pos="55.02" lane="e0_0" slope="0.00"/>
    </timestep>
    <timestep time="47.00">
        <vehicle id="background.1" x="82.71" y="-1.60" angle="90.00" type="human" speed="11.19" pos="82.71" lane="e0_0" slope="0.00"/>
        <vehicle id="background.2" x="61.01" y="-1.60" angle="90.00" type="human" speed="11.98" pos="61.01" lane="e0_0" slope="0.00"/>
    </timestep>
    <timestep time="47.50">
        <vehicle id="background.1" x="88.24" y="-1.60" angle="90.00" type="human" speed="11.07" pos="88.24" lane="e0_0" slope="0.00"/>
        <vehicle id="background.2" x="66.88" y="-1.60" angle="90.00" type="human" speed="11.74" pos="66.88" lane="e0_0" slope="0.00"/>
    </timestep>
    <timestep time="48.00">
        <vehicle id="background.1" x="93.81" y="-1.60" angle="90.00" type="human" speed="11.13" pos="93.81" lane="e0_0" slope="0.00"/>
        <vehicle id="background.2" x="72.82" y="-1.60" angle="90.00" type="human" speed="11.89" pos="72.82" lane="e0_0" slope="0.00"/>
    </timestep>
    <timestep time="48.50">
        <vehicle id="background.1" x="99.44" y="-1.60" angle="90.00" type="human" speed="11.28" pos="99.44" lane="e0_0" slope="0.00"/>
        <vehicle id="background.2" x="78.56" y="-1.60" angle="90.00" type="human" speed="11.47" pos="78.56" lane="e0_0" slope="0.00"/>
    </timestep>
    <timestep time="49.00">
        <vehicle id="background.1" x="104.92" y="-1.60" angle="90.00" type="human" speed="10.95" pos="104.92" lane="e0_0" slope="0.00"/>
        <vehicle id="background.2" x="84.46" y="-1.60" angle="90.00" type="human" speed="11.80" pos="84.46" lane="e0_0" slope="0.00"/>
    </timestep>
    <timestep time="49.50">
        <vehicle id="background.1" x="110.59" y="-1.60" angle="90.00" type="human" speed="11.33" pos="110.59" lane="e0_0" slope="0.00"/>
        <vehicle id="background.2" x="90.09" y="-1.60" angle="90.00" type="human" speed="11.25" pos="90.09" lane="e0_0" slope="0.00"/>
    </timestep>
    <timestep time="50.00">
        <vehicle id="background.1" x="116.09" y="-1.60" angle="90.00" type="human" speed="11.01" pos="116.09" lane="e0_0" slope="0.00"/>
        <vehicle id="background.2" x="95.74" y="-1.60" angle="90.00" type="human" speed="11.31" pos="95.74" lane="e0_0" slope="0.00"/>
    </timestep>
    <timestep time="50.50">
        <vehicle id="background.1" x="121.54" y="-1.60" angle="90.00" type="human" speed="10.90" pos="121.54" lane="e0_0" slope="0.00"/>
        <vehicle id="background.2" x="101.52" y="-1.60" angle="90.00" type="human" speed="11.55" pos="101.52" lane="e0_0" slope="0.00"/>
    </timestep>
    <timestep time="51.00">
        <vehicle id="background.1" x="127.07" y="-1.60" angle="90.00" type="human" speed="11.05" pos="127.07" lane="e0_0" slope="0.00"/>
        <vehicle id="background.2" x="107.00" y="-1.60" angle="90.00" type="human" speed="10.95" pos="107.00" lane="e0_0" slope="0.00"/>
    </timestep>
    <timestep time="51.50">
        <vehicle id="background.1" x="132.59" y="-1.60" angle="90.00" type="human" speed="11.05" pos="132.59" lane="e0_0" slope="0.00"/>
        <vehicle id="background.2" x="112.70" y="-1.60" angle="90.00" type="human" speed="11.41" pos="112.70" lane="e0_0" slope="0.00"/>
    </timestep>
    <timestep time="52.00">
        <vehicle id="background.1" x="138.04" y="-1.60" angle="90.00" type="human" speed="10.90" pos="138.04" lane="e0_0" slope="0.00"/>
        <vehicle id="background.2" x="118.43" y="-1.60" angle="90.00" type="human" speed="11.45" pos="118.43" lane="e0_0" slope="0.00"/>
    </timestep>
    <timestep time="52.50">
        <vehicle id="background.1" x="143.70" y="-1.60" angle="90.00" type="human" speed="11.31" pos="143.70" lane="e0_0" slope="0.00"/>
        <vehicle id="background.2" x="124.08" y="-1.60" angle="90.00" type="human" speed="11.30" pos="124.08" lane="e0_0" slope="0.00"/>
    </timestep>
    <timestep time="53.00">
        <vehicle id="background.1" x="149.14" y="-1.60" angle="90.00" type="human" speed="10.88" pos="149.14" lane="e0_0" slope="0.00"/>
        <vehicle id="background.2" x="129.81" y="-1.60" angle="90.00" type="human" speed="11.48" pos="129.81" lane="e0_0" slope="0.00"/>
    </timestep>
    <timestep time="53.50">
        <vehicle id="background.1" x="154.60" y="-1.60" angle="90.00" type="human" speed="10.93" pos="154.60" lane="e0_0" slope="0.00"/>
        <vehicle id="background.2" x="135.21" y="-1.60" angle="90.00" type="human" speed="10.79" pos="135.21" lane="e0_0" slope="0.00"/>
    </timestep>
    <timestep time="54.00">
        <vehicle id="background.1" x="160.03" y="-1.60" angle="90.00" type="human" speed="10.86" pos="160.03" lane="e0_0" slope="0.00"/>
        <vehicle id="background.2" x="140.70" y="-1.60" angle="90.00" type="human" speed="10.98" pos="140.70" lane="e0_0" slope="0.00"/>
    </timestep>
    <timestep time="54.50">
        <vehicle id="background.1" x="165.47" y="-1.60" angle="90.00" type="human" speed="10.87" pos="165.47" lane="e0_0" slope="0.00"/>
        <vehicle id="background.2" x="146.10" y="-1.60" angle="90.00" type="human" speed="10.80" pos="146.10" lane="e0_0" slope="0.00"/>
    </timestep>
    <timestep time="55.00">
        <vehicle id="background.1" x="170.95" y="-1.60" angle="90.00" type="human" speed="10.97" pos="170.95" lane="e0_0" slope="0.00"/>
        <vehicle id="background.2" x="151.58" y="-1.60" angle="90.00" type="human" speed="10.96" pos="151.58" lane="e0_0" slope="0.00"/>
    </timestep>
    <timestep time="55.50">
        <vehicle id="background.1" x="176.52" y="-1.60" angle="90.00" type="human" speed="11.14" pos="176.52" lane="e0_0" slope="0.00"/>
        <vehicle id="background.2" x="157.02" y="-1.60" angle="90.00" type="human" speed="10.88" pos="157.02" lane="e0_0" slope="0.00"/>
    </timestep>
    <timestep time="56.00">
        <vehicle id="background.1" x="181.99" y="-1.60" angle="90.00" type="human" speed="10.94" pos="181.99" lane="e0_0" slope="0.00"/>
        <vehicle id="background.2" x="162.64" y="-1.60" angle="90.00" type="human" speed="11.23" pos="162.64" lane="e0_0" slope="0.00"/>
    </timestep>
    <timestep time="56.50">
        <vehicle id="background.1" x="187.49" y="-1.60" angle="90.00" type="human" speed="11.01" pos="187.49" lane="e0_0" slope="0.00"/>
        <vehicle id="background.2" x="168.13" y="-1.60" angle="90.00" type="human" speed="10.99" pos="168.13" lane="e0_0" slope="0.00"/>
    </timestep>
    <timestep time="57.00">
        <vehicle id="background.1" x="193.08" y="-1.60" angle="90.00" type="human" speed="11.17" pos="193.08" lane="e0_0" slope="0.00"/>
        <vehicle id="background.2" x="173.75" y="-1.60" angle="90.00" type="human" speed="11.24" pos="173.75" lane="e0_0" slope="0.00"/>
    </timestep>
    <timestep time="57.50">
        <vehicle id="background.1" x="198.50" y="-1.60" angle="90.00" type="human" speed="10.85" pos="198.50" lane="e0_0" slope="0.00"/>
        <vehicle id="background.2" x="179.33" y="-1.60" angle="90.00" type="human" speed="11.15" pos="179.33" lane="e0_0" slope="0.00"/>
    </timestep>
    <timestep time="58.00">
        <vehicle id="background.1" x="204.04" y="-1.60" angle="90.00" type="human" speed="11.08" pos="204.04" lane="e0_0" slope="0.00"/>
        <vehicle id="background.2" x="184.76" y="-1.60" angle="90.00" type="human" speed="10.86" pos="184.76" lane="e0_0" slope="0.00"/>
    </timestep>
    <timestep time="58.50">
        <vehicle id="background.1" x="209.49" y="-1.60" angle="90.00" type="human" speed="10.88" pos="209.49" lane="e0_0" slope="0.00"/>
        <vehicle id="background.2" x="190.32" y="-1.60" angle="90.00" type="human" speed="11.12" pos="190.32" lane="e0_0" slope="0.00"/>
    </timestep>
    <timestep time="59.00">
        <vehicle id="background.1" x="214.94" y="-1.60" angle="90.00" type="human" speed="10.91" pos="214.94" lane="e0_0" slope="0.00"/>
        <vehicle id="background.2" x="195.81" y="-1.60" angle="90.00" type="human" speed="10.98" pos="195.81" lane="e0_0" slope="0.00"/>
    </timestep>
    <timestep time="59.50">
        <vehicle id="background.1" x="220.49" y="-1.60" angle="90.00" type="human" speed="11.11" pos="220.49" lane="e0_0" slope="0.00"/>
        <vehicle id="background.2" x="201.23" y="-1.60" angle="90.00" type="human" speed="10.84" pos="201.23" lane="e0_0" slope="0.00"/>
    </timestep>
    <timestep time="60.00">
        <vehicle id="background.1" x="225.94" y="-1.60" angle="90.00" type="human" speed="10.90" pos="225.94" lane="e0_0" slope="0.00"/>
        <vehicle id="background.2" x="206.64" y="-1.60" angle="90.00" type="human" speed="10.82" pos="206.64" lane="e0_0" slope="0.00"/>
    </timestep>
    <timestep time="60.50">
        <vehicle id="background.1" x="231.56" y="-1.60" angle="90.00" type="human" speed="11.24" pos="231.56" lane="e0_0" slope="0.00"/>
        <vehicle id="background.2" x="212.14" y="-1.60" angle="90.00" type="human" speed="11.01" pos="212.14" lane="e0_0" slope="0.00"/>
    </timestep>
    <timestep time="61.00">
        <vehicle id="background.1" x="237.01" y="-1.60" angle="90.00" type="human" speed="10.89" pos="237.01" lane="e0_0" slope="0.00"/>
        <vehicle id="background.2" x="217.80" y="-1.60" angle="90.00" type="human" speed="11.31" pos="217.80" lane="e0_0" slope="0.00"/>
    </timestep>
    <timestep time="61.50">
        <vehicle id="background.1" x="242.51" y="-1.60" angle="90.00" type="human" speed="11.00" pos="242.51" lane="e0_0" slope="0.00"/>
        <vehicle id="background.2" x="223.17" y="-1.60" angle="90.00" type="human" speed="10.74" pos="223.17" lane="e0_0" slope="0.00"/>
    </timestep>
    <timestep time="62.00">
        <vehicle id="background.1" x="248.13" y="-1.60" angle="90.00" type="human" speed="11.25" pos="248.13" lane="e0_0" slope="0.00"/>
        <vehicle id="background.2" x="228.64" y="-1.60" angle="90.00" type="human" speed="10.93" pos="228.64" lane="e0_0" slope="0.00"/>
    </timestep>
    <timestep time="62.50">
        <vehicle id="background.1" x="253.66" y="-1.60" angle="90.00" type="human" speed="11.07" pos="253.66" lane="e0_0" slope="0.00"/>
        <vehicle id="background.2" x="234.26" y="-1.60" angle="90.00" type="human" speed="11.25" pos="234.26" lane="e0_0" slope="0.00"/>
    </timestep>
    <timestep time="63.00">
        <vehicle id="background.1" x="259.15" y="-1.60" angle="90.00" type="human" speed="10.96" pos="259.15" lane="e0_0" slope="0.00"/>
        <vehicle id="background.2" x="239.79" y="-1.60" angle="90.00" type="human" speed="11.06" pos="239.79" lane="e0_0" slope="0.00"/>
        <vehicle id="background.3" x="5.10" y="-1.60" angle="90.00" type="human" speed="12.79" pos="5.10" lane="e0_0" slope="0.00"/>
    </timestep>
    <timestep time="63.50">
        <vehicle id="background.1" x="264.73" y="-1.60" angle="90.00" type="human" speed="11.17" pos="264.73" lane="e0_0" slope="0.00"/>
        <vehicle id="background.2" x="245.28" y="-1.60" angle="90.00" type="human" speed="10.98" pos="245.28" lane="e0_0" slope="0.00"/>
        <vehicle id="background.3" x="11.33" y="-1.60" angle="90.00" type="human" speed="12.46" pos="11.33" lane="e0_0" slope="0.00"/>
    </timestep>
    <timestep time="64.00">
        <vehicle id="background.1" x="270.25" y="-1.60" angle="90.00" type="human" speed="11.04" pos="270.25" lane="e0_0" slope="0.00"/>
        <vehicle id="background.2" x="250.93" y="-1.60" angle="90.00" type="human" speed="11.30" pos="250.93" lane="e0_0" slope="0.00"/>
        <vehicle id="background.3" x="17.54" y="-1.60" angle="90.00" type="human" speed="12.42" pos="17.54" lane="e0_0" slope="0.00"/>
    </timestep>
    <timestep time="64.50">
        <vehicle id="background.1" x="275.72" y="-1.60" angle="90.00" type="human" speed="10.93" pos="275.72" lane="e0_0" slope="0.00"/>
        <vehicle id="background.2" x="256.56" y="-1.60" angle="90.00" type="human" speed="11.27" pos="256.56" lane="e0_0" slope="0.00"/>
        <vehicle id="background.3" x="23.70" y="-1.60" angle="90.00" type="human" speed="12.33" pos="23.70" lane="e0_0" slope="0.00"/>
    </timestep>
    <timestep time="65.00">
        <vehicle id="background.1" x="281.27" y="-1.60" angle="90.00" type="human" speed="11.11" pos="281.27" lane="e0_0" slope="0.00"/>
        <vehicle id="background.2" x="262.01" y="-1.60" angle="90.00" type="human" speed="10.90" pos="262.01" lane="e0_0" slope="0.00"/>
        <vehicle id="background.3" x="30.01" y="-1.60" angle="90.00" type="human" speed="12.61" pos="30.01" lane="e0_0" slope="0.00"/>
    </timestep>
    <timestep time="65.50">
        <vehicle id="background.1" x="286.83" y="-1.60" angle="90.00" type="human" speed="11.12" pos="286.83" lane="e0_0" slope="0.00"/>
        <vehicle id="background.2" x="267.53" y="-1.60" angle="90.00" type="human" speed="11.04" pos="267.53" lane="e0_0" slope="0.00"/>
        <vehicle id="background.3" x="36.32" y="-1.60" angle="90.00" type="human" speed="12.62" pos="36.32" lane="e0_0" slope="0.00"/>
    </timestep>
    <timestep time="66.00">
        <vehicle id="background.1" x="291.29" y="-1.60" angle="90.00" type="human" speed="8.92" pos="291.29" lane="e0_0" slope="0.00"/>
        <vehicle id="background.2" x="273.08" y="-1.60" angle="90.00" type="human" speed="11.10" pos="273.08" lane="e0_0" slope="0.00"/>
        <vehicle id="background.3" x="42.47" y="-1.60" angle="90.00" type="human" speed="12.30" pos="42.47" lane="e0_0" slope="0.00"/>
        <vehicle id="background.4" x="5.10" y="-1.60" angle="90.00" type="human" speed="11.77" pos="5.10" lane="e0_0" slope="0.00"/>
    </timestep>
    <timestep time="66.50">
        <vehicle id="background.1" x="294.87" y="-1.60" angle="90.00" type="human" speed="7.16" pos="294.87" lane="e0_0" slope="0.00"/>
        <vehicle id="background.2" x="277.71" y="-1.60" angle="90.00" type="human" speed="9.25" pos="277.71" lane="e0_0" slope="0.00"/>
        <vehicle id="background.3" x="48.64" y="-1.60" angle="90.00" type="human" speed="12.33" pos="48.64" lane="e0_0" slope="0.00"/>
        <vehicle id="background.4" x="10.84" y="-1.60" angle="90.00" type="human" speed="11.47" pos="10.84" lane="e0_0" slope="0.00"/>
    </timestep>
    <timestep time="67.00">
        <vehicle id="background.1" x="297.32" y="-1.60" angle="90.00" type="human" speed="4.91" pos="297.32" lane="e0_0" slope="0.00"/>
        <vehicle id="background.2" x="281.72" y="-1.60" angle="90.00" type="human" speed="8.04" pos="281.72" lane="e0_0" slope="0.00"/>
        <vehicle id="background.3" x="54.99" y="-1.60" angle="90.00" type="human" speed="12.72" pos="54.99" lane="e0_0" slope="0.00"/>