<?xml version="1.0" encoding="UTF-8"?>

<!-- generated on 2026-05-13 21:30:44 by Eclipse SUMO sumo Version 1.24.0
<sumoConfiguration xmlns:xsi="http://www.w3.org/2001/XMLSchema-instance" xsi:noNamespaceSchemaLocation="http://sumo.dlr.de/xsd/sumoConfiguration.xsd">

    <input>
        <net-file value="scenarios/simple_arterial/simple_arterial.net.xml"/>
        <route-files value="scenarios/simple_arterial/simple_arterial.rou.xml"/>
        <additional-files value="scenarios/simple_arterial/simple_arterial.tls.xml"/>
    </input>

    <output>
        <fcd-output value="runs/fcd_rlhf/episode_00013_seed_213.fcd.xml"/>
    </output>

    <time>
        <begin value="0"/>
        <end value="900"/>
        <step-length value="0.5"/>
    </time>

    <report>
        <no-warnings value="true"/>
    </report>

    <traci_server>
        <remote-port value="22810"/>
    </traci_server>

    <random_number>
        <seed value="213"/>
    </random_number>

</sumoConfiguration>
-->

<fcd-export xmlns:xsi="http://www.w3.org/2001/XMLSchema-instance" xsi:noNamespaceSchemaLocation="http://sumo.dlr.de/xsd/fcd_file.xsd">
    <timestep time="0.00"/>
    <timestep time="0.50"/>
    <timestep time="1.00"/>
    <timestep time="1.50"/>
    <timestep time="2.00"/>
    <timestep time="2.50"/>
    <timestep time="3.00"/>
    <timestep time="3.50"/>
    <timestep time="4.00"/>
    <timestep time="4.50"/>
    <timestep time="5.00"/>
    <timestep time="5.50"/>
    <timestep time="6.00"/>
    <timestep time="6.50"/>
    <timestep time="7.00"/>
    <timestep time="7.50"/>
    <timestep time="8.00"/>
    <timestep time="8.50"/>
    <timestep time="9.00">
        <vehicle id="background.0" x="5.10" y="-1.60" angle="90.00" type="human" speed="11.95" pos="5.10" lane="e0_0" slope="0.00"/>
    </timestep>
    <timestep time="9.50">
        <vehicle id="background.0" x="11.06" y="-1.60" angle="90.00" type="human" speed="11.92" pos="11.06" lane="e0_0" slope="0.00"/>
    </timestep>
    <timestep time="10.00">
        <vehicle id="background.0" x="16.82" y="-1.60" angle="90.00" type="human" speed="11.52" pos="16.82" lane="e0_0" slope="0.00"/>
    </timestep>
    <timestep time="10.50">
        <vehicle id="background.0" x="22.71" y="-1.60" angle="90.00" type="human" speed="11.77" pos="22.71" lane="e0_0" slope="0.00"/>
    </timestep>
    <timestep time="11.00">
        <vehicle id="background.0" x="28.47" y="-1.60" angle="90.00" type="human" speed="11.53" pos="28.47" lane="e0_0" slope="0.00"/>
    </timestep>
    <timestep time="11.50">
        <vehicle id="background.0" x="34.22" y="-1.60" angle="90.00" type="human" speed="11.49" pos="34.22" lane="e0_0" slope="0.00"/>
    </timestep>
    <timestep time="12.00">
        <vehicle id="background.0" x="40.13" y="-1.60" angle="90.00" type="human" speed="11.82" pos="40.13" lane="e0_0" slope="0.00"/>
    </timestep>
    <timestep time="12.50">
        <vehicle id="background.0" x="46.00" y="-1.60" angle="90.00" type="human" speed="11.75" pos="46.00" lane="e0_0" slope="0.00"/>
    </timestep>
    <timestep time="13.00">
        <vehicle id="background.0" x="51.80" y="-1.60" angle="90.00" type="human" speed="11.61" pos="51.80" lane="e0_0" slope="0.00"/>
    </timestep>
    <timestep time="13.50">
        <vehicle id="background.0" x="57.71" y="-1.60" angle="90.00" type="human" speed="11.82" pos="57.71" lane="e0_0" slope="0.00"/>
    </timestep>
    <timestep time="14.00">
        <vehicle id="background.0" x="63.54" y="-1.60" angle="90.00" type="human" speed="11.65" pos="63.54" lane="e0_0" slope="0.00"/>
    </timestep>
    <timestep time="14.50">
        <vehicle id="background.0" x="69.48" y="-1.60" angle="90.00" type="human" speed="11.90" pos="69.48" lane="e0_0" slope="0.00"/>
    </timestep>
    <timestep time="15.00">
        <vehicle id="background.0" x="75.34" y="-1.60" angle="90.00" type="human" speed="11.71" pos="75.34" lane="e0_0" slope="0.00"/>
    </timestep>
    <timestep time="15.50">
        <vehicle id="background.0" x="81.21" y="-1.60" angle="90.00" type="human" speed="11.74" pos="81.21" lane="e0_0" slope="0.00"/>
    </timestep>
    <timestep time="16.00">
        <vehicle id="background.0" x="87.08" y="-1.60" angle="90.00" type="human" speed="11.73" pos="87.08" lane="e0_0" slope="0.00"/>
    </timestep>
    <timestep time="16.50">
        <vehicle id="background.0" x="93.05" y="-1.60" angle="90.00" type="human" speed="11.94" pos="93.05" lane="e0_0" slope="0.00"/>
    </timestep>
    <timestep time="17.00">
        <vehicle id="background.0" x="98.94" y="-1.60" angle="90.00" type="human" speed="11.78" pos="98.94" lane="e0_0" slope="0.00"/>
    </timestep>
    <timestep time="17.50">
        <vehicle id="background.0" x="104.78" y="-1.60" angle="90.00" type="human" speed="11.69" pos="104.78" lane="e0_0" slope="0.00"/>
    </timestep>
    <timestep time="18.00">
        <vehicle id="background.0" x="110.57" y="-1.60" angle="90.00" type="human" speed="11.58" pos="110.57" lane="e0_0" slope="0.00"/>
    </timestep>
    <timestep time="18.50">
        <vehicle id="background.0" x="116.33" y="-1.60" angle="90.00" type="human" speed="11.52" pos="116.33" lane="e0_0" slope="0.00"/>
    </timestep>
    <timestep time="19.00">
        <vehicle id="background.0" x="122.08" y="-1.60" angle="90.00" type="human" speed="11.49" pos="122.08" lane="e0_0" slope="0.00"/>
    </timestep>
    <timestep time="19.50">
        <vehicle id="background.0" x="128.01" y="-1.60" angle="90.00" type="human" speed="11.86" pos="128.01" lane="e0_0" slope="0.00"/>
    </timestep>
    <timestep time="20.00">
        <vehicle id="background.0" x="133.81" y="-1.60" angle="90.00" type="human" speed="11.61" pos="133.81" lane="e0_0" slope="0.00"/>
    </timestep>
    <timestep time="20.50">
        <vehicle id="background.0" x="139.66" y="-1.60" angle="90.00" type="human" speed="11.69" pos="139.66" lane="e0_0" slope="0.00"/>
    </timestep>
    <timestep time="21.00">
        <vehicle id="background.0" x="145.62" y="-1.60" angle="90.00" type="human" speed="11.94" pos="145.62" lane="e0_0" slope="0.00"/>
    </timestep>
    <timestep time="21.50">
        <vehicle id="background.0" x="151.42" y="-1.60" angle="90.00" type="human" speed="11.60" pos="151.42" lane="e0_0" slope="0.00"/>
    </timestep>
    <timestep time="22.00">
        <vehicle id="background.0" x="157.35" y="-1.60" angle="90.00" type="human" speed="11.86" pos="157.35" lane="e0_0" slope="0.00"/>
    </timestep>
    <timestep time="22.50">
        <vehicle id="background.0" x="163.32" y="-1.60" angle="90.00" type="human" speed="11.93" pos="163.32" lane="e0_0" slope="0.00"/>
    </timestep>
    <timestep time="23.00">
        <vehicle id="background.0" x="169.23" y="-1.60" angle="90.00" type="human" speed="11.83" pos="169.23" lane="e0_0" slope="0.00"/>
    </timestep>
    <timestep time="23.50">
        <vehicle id="background.0" x="175.12" y="-1.60" angle="90.00" type="human" speed="11.77" pos="175.12" lane="e0_0" slope="0.00"/>
    </timestep>
    <timestep time="24.00">
        <vehicle id="background.0" x="180.96" y="-1.60" angle="90.00" type="human" speed="11.69" pos="180.96" lane="e0_0" slope="0.00"/>
    </timestep>
    <timestep time="24.50">
        <vehicle id="background.0" x="186.73" y="-1.60" angle="90.00" type="human" speed="11.55" pos="186.73" lane="e0_0" slope="0.00"/>
    </timestep>
    <timestep time="25.00">
        <vehicle id="background.0" x="192.60" y="-1.60" angle="90.00" type="human" speed="11.74" pos="192.60" lane="e0_0" slope="0.00"/>
    </timestep>
    <timestep time="25.50">
        <vehicle id="background.0" x="198.40" y="-1.60" angle="90.00" type="human" speed="11.58" pos="198.40" lane="e0_0" slope="0.00"/>
    </timestep>
    <timestep time="26.00">
        <vehicle id="background.0" x="204.27" y="-1.60" angle="90.00" type="human" speed="11.76" pos="204.27" lane="e0_0" slope="0.00"/>
    </timestep>
    <timestep time="26.50">
        <vehicle id="background.0" x="210.08" y="-1.60" angle="90.00" type="human" speed="11.62" pos="210.08" lane="e0_0" slope="0.00"/>
    </timestep>
    <timestep time="27.00">
        <vehicle id="background.0" x="216.03" y="-1.60" angle="90.00" type="human" speed="11.89" pos="216.03" lane="e0_0" slope="0.00"/>
    </timestep>
    <timestep time="27.50">
        <vehicle id="background.0" x="221.97" y="-1.60" angle="90.00" type="human" speed="11.88" pos="221.97" lane="e0_0" slope="0.00"/>
    </timestep>
    <timestep time="28.00">
        <vehicle id="background.0" x="227.82" y="-1.60" angle="90.00" type="human" speed="11.72" pos="227.82" lane="e0_0" slope="0.00"/>
    </timestep>
    <timestep time="28.50">
        <vehicle id="background.0" x="233.75" y="-1.60" angle="90.00" type="human" speed="11.86" pos="233.75" lane="e0_0" slope="0.00"/>
    </timestep>
    <timestep time="29.00">
        <vehicle id="background.0" x="239.52" y="-1.60" angle="90.00" type="human" speed="11.55" pos="239.52" lane="e0_0" slope="0.00"/>
    </timestep>
    <timestep time="29.50">
        <vehicle id="background.0" x="245.25" y="-1.60" angle="90.00" type="human" speed="11.45" pos="245.25" lane="e0_0" slope="0.00"/>
    </timestep>
    <timestep time="30.00">
        <vehicle id="background.0" x="251.13" y="-1.60" angle="90.00" type="human" speed="11.77" pos="251.13" lane="e0_0" slope="0.00"/>
    </timestep>
    <timestep time="30.50">
        <vehicle id="background.0" x="256.91" y="-1.60" angle="90.00" type="human" speed="11.56" pos="256.91" lane="e0_0" slope="0.00"/>
    </timestep>
    <timestep time="31.00">
        <vehicle id="background.0" x="262.83" y="-1.60" angle="90.00" type="human" speed="11.84" pos="262.83" lane="e0_0" slope="0.00"/>
    </timestep>
    <timestep time="31.50">
        <vehicle id="background.0" x="268.75" y="-1.60" angle="90.00" type="human" speed="11.83" pos="268.75" lane="e0_0" slope="0.00"/>
    </timestep>
    <timestep time="32.00">
        <vehicle id="background.0" x="274.62" y="-1.60" angle="90.00" type="human" speed="11.74" pos="274.62" lane="e0_0" slope="0.00"/>
    </timestep>
    <timestep time="32.50">
        <vehicle id="background.0" x="280.51" y="-1.60" angle="90.00" type="human" speed="11.79" pos="280.51" lane="e0_0" slope="0.00"/>
    </timestep>
    <timestep time="33.00">
        <vehicle id="background.0" x="286.33" y="-1.60" angle="90.00" type="human" speed="11.64" pos="286.33" lane="e0_0" slope="0.00"/>
    </timestep>
    <timestep time="33.50">
        <vehicle id="background.0" x="292.12" y="-1.60" angle="90.00" type="human" speed="11.57" pos="292.12" lane="e0_0" slope="0.00"/>
    </timestep>
    <timestep time="34.00">
        <vehicle id="background.0" x="298.01" y="-1.60" angle="90.00" type="human" speed="11.79" pos="298.01" lane="e0_0" slope="0.00"/>
    </timestep>
    <timestep time="34.50">
        <vehicle id="background.0" x="303.86" y="-1.60" angle="90.00" type="human" speed="11.91" pos="3.86" lane="e1_0" slope="0.00"/>
    </timestep>
    <timestep time="35.00">
        <vehicle id="background.0" x="309.80" y="-1.60" angle="90.00" type="human" speed="11.87" pos="9.80" lane="e1_0" slope="0.00"/>
    </timestep>
    <timestep time="35.50">
        <vehicle id="background.0" x="315.76" y="-1.60" angle="90.00" type="human" speed="11.92" pos="15.76" lane="e1_0" slope="0.00"/>
    </timestep>
    <timestep time="36.00">
        <vehicle id="background.0" x="321.61" y="-1.60" angle="90.00" type="human" speed="11.70" pos="21.61" lane="e1_0" slope="0.00"/>
    </timestep>
    <timestep time="36.50">
        <vehicle id="background.0" x="327.44" y="-1.60" angle="90.00" type="human" speed="11.66" pos="27.44" lane="e1_0" slope="0.00"/>
    </timestep>
    <timestep time="37.00">
        <vehicle id="background.0" x="333.37" y="-1.60" angle="90.00" type="human" speed="11.86" pos="33.37" lane="e1_0" slope="0.00"/>
    </timestep>
    <timestep time="37.50">
        <vehicle id="background.0" x="339.33" y="-1.60" angle="90.00" type="human" speed="11.92" pos="39.33" lane="e1_0" slope="0.00"/>
    </timestep>
    <timestep time="38.00">
        <vehicle id="background.0" x="345.25" y="-1.60" angle="90.00" type="human" speed="11.84" pos="45.25" lane="e1_0" slope="0.00"/>
    </timestep>
    <timestep time="38.50"/>
    <timestep time="39.00"/>
    <timestep time="39.50"/>
    <timestep time="40.00"/>
    <timestep time="40.50"/>
    <timestep time="41.00"/>
    <timestep time="41.50"/>
    <timestep time="42.00"/>
    <timestep time="42.50"/>
    <timestep time="43.00"/>
    <timestep time="43.50"/>
    <timestep time="44.00"/>
    <timestep time="44.50"/>
    <timestep time="45.00"/>
    <timestep time="45.50"/>
    <timestep time="46.00"/>
    <timestep time="46.50"/>
    <timestep time="47.00"/>
    <timestep time="47.50"/>
    <timestep time="48.00"/>
    <timestep time="48.50"/>
    <timestep time="49.00"/>
    <timestep time="49.50"/>
    <timestep time="50.00"/>
    <timestep time="50.50"/>
    <timestep time="51.00"/>
    <timestep time="51.50"/>
    <timestep time="52.00">
        <vehicle id="background.1" x="5.10" y="-1.60" angle="90.00" type="human" speed="13.89" pos="5.10" lane="e0_0" slope="0.00"/>
    </timestep>
    <timestep time="52.50">
        <vehicle id="background.1" x="11.94" y="-1.60" angle="90.00" type="human" speed="13.68" pos="11.94" lane="e0_0" slope="0.00"/>
    </timestep>
    <timestep time="53.00">
        <vehicle id="background.1" x="18.82" y="-1.60" angle="90.00" type="human" speed="13.75" pos="18.82" lane="e0_0" slope="0.00"/>
    </timestep>
    <timestep time="53.50">
        <vehicle id="background.1" x="25.54" y="-1.60" angle="90.00" type="human" speed="13.43" pos="25.54" lane="e0_0" slope="0.00"/>
    </timestep>
    <timestep time="54.00">
        <vehicle id="background.1" x="32.33" y="-1.60" angle="90.00" type="human" speed="13.59" pos="32.33" lane="e0_0" slope="0.00"/>
    </timestep>
    <timestep time="54.50">
        <vehicle id="background.1" x="39.25" y="-1.60" angle="90.00" type="human" speed="13.83" pos="39.25" lane="e0_0" slope="0.00"/>
    </timestep>
    <timestep time="55.00">
        <vehicle id="background.1" x="46.16" y="-1.60" angle="90.00" type="human" speed="13.82" pos="46.16" lane="e0_0" slope="0.00"/>
    </timestep>
    <timestep time="55.50">
        <vehicle id="background.1" x="52.94" y="-1.60" angle="90.00" type="human" speed="13.57" pos="52.94" lane="e0_0" slope="0.00"/>
    </timestep>
    <timestep time="56.00">
        <vehicle id="background.1" x="59.76" y="-1.60" angle="90.00" type="human" speed="13.63" pos="59.76" lane="e0_0" slope="0.00"/>
    </timestep>
    <timestep time="56.50">
        <vehicle id="background.1" x="66.51" y="-1.60" angle="90.00" type="human" speed="13.50" pos="66.51" lane="e0_0" slope="0.00"/>
    </timestep>
    <timestep time="57.00">
        <vehicle id="background.1" x="73.41" y="-1.60" angle="90.00" type="human" speed="13.79" pos="73.41" lane="e0_0" slope="0.00"/>
    </timestep>
    <timestep time="57.50">
        <vehicle id="background.1" x="80.14" y="-1.60" angle="90.00" type="human" speed="13.47" pos="80.14" lane="e0_0" slope="0.00"/>
    </timestep>
    <timestep time="58.00">
        <vehicle id="background.1" x="86.95" y="-1.60" angle="90.00" type="human" speed="13.63" pos="86.95" lane="e0_0" slope="0.00"/>
    </timestep>
    <timestep time="58.50">
        <vehicle id="background.1" x="93.68" y="-1.60" angle="90.00" type="human" speed="13.44" pos="93.68" lane="e0_0" slope="0.00"/>
    </timestep>
    <timestep time="59.00">
        <vehicle id="background.1" x="100.57" y="-1.60" angle="90.00" type="human" speed="13.79" pos="100.57" lane="e0_0" slope="0.00"/>
        <vehicle id="ego" x="5.10" y="-1.60" angle="90.00" type="ego_type" speed="0.00" pos="5.10" lane="e0_0" slope="0.00"/>
    </timestep>
    <timestep time="59.50">
        <vehicle id="background.1" x="107.33" y="-1.60" angle="90.00" type="human" speed="13.51" pos="107.33" lane="e0_0" slope="0.00"/>
        <vehicle id="ego" x="5.35" y="-1.60" angle="90.00" type="ego_type" speed="0.50" pos="5.35" lane="e0_0" slope="0.00"/>
    </timestep>
    <timestep time="60.00">
        <vehicle id="background.1" x="114.16" y="-1.60" angle="90.00" type="human" speed="13.67" pos="114.16" lane="e0_0" slope="0.00"/>
        <vehicle id="ego" x="5.85" y="-1.60" angle="90.00" type="ego_type" speed="1.00" pos="5.85" lane="e0_0" slope="0.00"/>
    </timestep>
    <timestep time="60.50">
        <vehicle id="background.1" x="120.94" y="-1.60" angle="90.00" type="human" speed="13.55" pos="120.94" lane="e0_0" slope="0.00"/>
        <vehicle id="ego" x="6.60" y="-1.60" angle="90.00" type="ego_type" speed="1.50" pos="6.60" lane="e0_0" slope="0.00"/>
    </timestep>
    <timestep time="61.00">
        <vehicle id="background.1" x="127.68" y="-1.60" angle="90.00" type="human" speed="13.47" pos="127.68" lane="e0_0" slope="0.00"/>
        <vehicle id="ego" x="7.60" y="-1.60" angle="90.00" type="ego_type" speed="2.00" pos="7.60" lane="e0_0" slope="0.00"/>
    </timestep>
    <timestep time="61.50">
        <vehicle id="background.1" x="134.51" y="-1.60" angle="90.00" type="human" speed="13.68" pos="134.51" lane="e0_0" slope="0.00"/>
        <vehicle id="ego" x="8.85" y="-1.60" angle="90.00" type="ego_type" speed="2.50" pos="8.85" lane="e0_0" slope="0.00"/>
    </timestep>
    <timestep time="62.00">
        <vehicle id="background.1" x="141.29" y="-1.60" angle="90.00" type="human" speed="13.56" pos="141.29" lane="e0_0" slope="0.00"/>
        <vehicle id="ego" x="10.35" y="-1.60" angle="90.00" type="ego_type" speed="3.00" pos="10.35" lane="e0_0" slope="0.00"/>
    </timestep>
    <timestep time="62.50">
        <vehicle id="background.1" x="148.06" y="-1.60" angle="90.00" type="human" speed="13.53" pos="148.06" lane="e0_0" slope="0.00"/>
        <vehicle id="ego" x="12.10" y="-1.60" angle="90.00" type="ego_type" speed="3.50" pos="12.10" lane="e0_0" slope="0.00"/>
    </timestep>
    <timestep time="63.00">
        <vehicle id="background.1" x="154.82" y="-1.60" angle="90.00" type="human" speed="13.53" pos="154.82" lane="e0_0" slope="0.00"/>
        <vehicle id="ego" x="14.10" y="-1.60" angle="90.00" type="ego_type" speed="4.00" pos="14.10" lane="e0_0" slope="0.00"/>
    </timestep>
    <timestep time="63.50">
        <vehicle id="background.1" x="161.53" y="-1.60" angle="90.00" type="human" speed="13.41" pos="161.53" lane="e0_0" slope="0.00"/>
        <vehicle id="ego" x="16.35" y="-1.60" angle="90.00" type="ego_type" speed="4.50" pos="16.35" lane="e0_0" slope="0.00"/>
    </timestep>
    <timestep time="64.00">
        <vehicle id="background.1" x="168.28" y="-1.60" angle="90.00" type="human" speed="13.50" pos="168.28" lane="e0_0" slope="0.00"/>
        <vehicle id="ego" x="18.85" y="-1.60" angle="90.00" type="ego_type" speed="5.00" pos="18.85" lane="e0_0" slope="0.00"/>
    </timestep>
    <timestep time="64.50">
        <vehicle id="background.1" x="175.00" y="-1.60" angle="90.00" type="human" speed="13.44" pos="175.00" lane="e0_0" slope="0.00"/>
        <vehicle id="ego" x="21.60" y="-1.60" angle="90.00" type="ego_type" speed="5.50" pos="21.60" lane="e0_0" slope="0.00"/>
    </timestep>
    <timestep time="65.00">
        <vehicle id="background.1" x="181.90" y="-1.60" angle="90.00" type="human" speed="13.79" pos="181.90" lane="e0_0" slope="0.00"/>
        <vehicle id="ego" x="24.35" y="-1.60" angle="90.00" type="ego_type" speed="5.50" pos="24.35" lane="e0_0" slope="0.00"/>
    </timestep>
    <timestep time="65.50">
        <vehicle id="background.1" x="188.78" y="-1.60" angle="90.00" type="human" speed="13.77" pos="188.78" lane="e0_0" slope="0.00"/>
        <vehicle id="ego" x="27.10" y="-1.60" angle="90.00" type="ego_type" speed="5.50" pos="27.10" lane="e0_0" slope="0.00"/>
    </timestep>
    <timestep time="66.00">
        <vehicle id="background.1" x="195.69" y="-1.60" angle="90.00" type="human" speed="13.82" pos="195.69" lane="e0_0" slope="0.00"/>
        <vehicle id="ego" x="29.85" y="-1.60" angle="90.00" type="ego_type" speed="5.50" pos="29.85" lane="e0_0" slope="0.00"/>
    </timestep>
    <timestep time="66.50">
        <vehicle id="background.1" x="202.57" y="-1.60" angle="90.00" type="human" speed="13.76" pos="202.57" lane="e0_0" slope="0.00"/>
        <vehicle id="ego" x="32.60" y="-1.60" angle="90.00" type="ego_type" speed="5.50" pos="32.60" lane="e0_0" slope="0.00"/>
    </timestep>
    <timestep time="67.00">
        <vehicle id="background.1" x="209.46" y="-1.60" angle="90.00" type="human" speed="13.76" pos="209.46" lane="e0_0" slope="0.00"/>
        <vehicle id="ego" x="35.35" y="-1.60" angle="90.00" type="ego_type" speed="5.50" pos="35.35" lane="e0_0" slope="0.00"/>
    </timestep>
    <timestep time="67.50">
        <vehicle id="background.1" x="216.23" y="-1.60" angle="90.00" type="human" speed="13.54" pos="216.23" lane="e0_0" slope="0.00"/>
        <vehicle id="ego" x="38.10" y="-1.60" angle="90.00" type="ego_type" speed="5.50" pos="38.10" lane="e0_0" slope="0.00"/>
    </timestep>
    <timestep time="68.00">
        <vehicle id="background.1" x="223.00" y="-1.60" angle="90.00" type="human" speed="13.55" pos="223.00" lane="e0_0" slope="0.00"/>
        <vehicle id="ego" x="40.85" y="-1.60" angle="90.00" type="ego_type" speed="5.50" pos="40.85" lane="e0_0" slope="0.00"/>
    </timestep>
    <timestep time="68.50">
        <vehicle id="background.1" x="229.92" y="-1.60" angle="90.00" type="human" speed="13.84" pos="229.92" lane="e0_0" slope="0.00"/>
        <vehicle id="ego" x="43.60" y="-1.60" angle="90.00" type="ego_type" speed="5.50" pos="43.60" lane="e0_0" slope="0.00"/>
    </timestep>
    <timestep time="69.00">
        <vehicle id="background.1" x="236.66" y="-1.60" angle="90.00" type="human" speed="13.49" pos="236.66" lane="e0_0" slope="0.00"/>
        <vehicle id="ego" x="46.35" y="-1.60" angle="90.00" type="ego_type" speed="5.50" pos="46.35" lane="e0_0" slope="0.00"/>
    </timestep>
    <timestep time="69.50">
        <vehicle id="background.1" x="243.40" y="-1.60" angle="90.00" type="human" speed="13.47" pos="243.40" lane="e0_0" slope="0.00"/>
        <vehicle id="ego" x="49.10" y="-1.60" angle="90.00" type="ego_type" speed="5.50" pos="49.10" lane="e0_0" slope="0.00"/>
    </timestep>
    <timestep time="70.00">
        <vehicle id="background.1" x="250.15" y="-1.60" angle="90.00" type="human" speed="13.50" pos="250.15" lane="e0_0" slope="0.00"/>
        <vehicle id="ego" x="51.85" y="-1.60" angle="90.00" type="ego_type" speed="5.50" pos="51.85" lane="e0_0" slope="0.00"/>
    </timestep>
    <timestep time="70.50">
        <vehicle id="background.1" x="257.08" y="-1.60" angle="90.00" type="human" speed="13.87" pos="257.08" lane="e0_0" slope="0.00"/>
        <vehicle id="ego" x="54.60" y="-1.60" angle="90.00" type="ego_type" speed="5.50" pos="54.60" lane="e0_0" slope="0.00"/>
    </timestep>
    <timestep time="71.00">
        <vehicle id="background.1" x="263.80" y="-1.60" angle="90.00" type="human" speed="13.43" pos="263.80" lane="e0_0" slope="0.00"/>
        <vehicle id="ego" x="57.35" y="-1.60" angle="90.00" type="ego_type" speed="5.50" pos="57.35" lane="e0_0" slope="0.00"/>
    </timestep>
    <timestep time="71.50">
        <vehicle id="background.1" x="270.52" y="-1.60" angle="90.00" type="human" speed="13.44" pos="270.52" lane="e0_0" slope="0.00"/>
        <vehicle id="ego" x="59.73" y="-1.60" angle="90.00" type="ego_type" speed="4.75" pos="59.73" lane="e0_0" slope="0.00"/>
    </timestep>
    <timestep time="72.00">
        <vehicle id="background.1" x="277.30" y="-1.60" angle="90.00" type="human" speed="13.56" pos="277.30" lane="e0_0" slope="0.00"/>
        <vehicle id="ego" x="62.35" y="-1.60" angle="90.00" type="ego_type" speed="5.25" pos="62.35" lane="e0_0" slope="0.00"/>
    </timestep>
    <timestep time="72.50">
        <vehicle id="background.1" x="283.64" y="-1.60" angle="90.00" type="human" speed="12.67" pos="283.64" lane="e0_0" slope="0.00"/>
        <vehicle id="ego" x="65.22" y="-1.60" angle="90.00" type="ego_type" speed="5.75" pos="65.22" lane="e0_0" slope="0.00"/>
    </timestep>
    <timestep time="73.00">
        <vehicle id="background.1" x="288.85" y="-1.60" angle="90.00" type="human" speed="10.42" pos="288.85" lane="e0_0" slope="0.00"/>
        <vehicle id="ego" x="68.10" y="-1.60" angle="90.00" type="ego_type" speed="5.75" pos="68.10" lane="e0_0" slope="0.00"/>
    </timestep>
    <timestep time="73.50">
        <vehicle id="background.1" x="292.94" y="-1.60" angle="90.00" type="human" speed="8.17" pos="292.94" lane="e0_0" slope="0.00"/>
        <vehicle id="ego" x="70.97" y="-1.60" angle="90.00" type="ego_type" speed="5.75" pos="70.97" lane="e0_0" slope="0.00"/>
    </timestep>
    <timestep time="74.00">
        <vehicle id="background.1" x="295.90" y="-1.60" angle="90.00" type="human" speed="5.92" pos="295.90" lane="e0_0" slope="0.00"/>
        <vehicle id="ego" x="74.10" y="-1.60" angle="90.00" type="ego_type" speed="6.25" pos="74.10" lane="e0_0" slope="0.00"/>
    </timestep>
    <timestep time="74.50">
        <vehicle id="background.1" x="297.87" y="-1.60" angle="90.00" type="human" speed="3.94" pos="297.87" lane="e0_0" slope="0.00"/>
        <vehicle id="background.2" x="5.10" y="-1.60" angle="90.00" type="human" speed="13.89" pos="5.10" lane="e0_0" slope="0.00"/>
        <vehicle id="ego" x="77.22" y="-1.60" angle="90.00" type="ego_type" speed="6.25" pos="77.22" lane="e0_0" slope="0.00"/>
    </timestep>
    <timestep time="75.00">
        <vehicle id="background.1" x="298.75" y="-1.60" angle="90.00" type="human" speed="1.76" pos="298.75" lane="e0_0" slope="0.00"/>
        <vehicle id="background.2" x="11.95" y="-1.60" angle="90.00" type="human" speed="13.70" pos="11.95" lane="e0_0" slope="0.00"/>
        <vehicle id="ego" x="80.35" y="-1.60" angle="90.00" type="ego_type" speed="6.25" pos="80.35" lane="e0_0" slope="0.00"/>
    </timestep>
    <timestep time="75.50">
        <vehicle id="background.1" x="298.98" y="-1.60" angle="90.00" type="human" speed="0.45" pos="298.98" lane="e0_0" slope="0.00"/>
        <vehicle id="background.2" x="18.89" y="-1.60" angle="90.00" type="human" speed="13.87" pos="18.89" lane="e0_0" slope="0.00"/>
        <vehicle id="ego" x="83.47" y="-1.60" angle="90.00" type="ego_type" speed="6.25" pos="83.47" lane="e0_0" slope="0.00"/>
    </timestep>
    <timestep time="76.00">
        <vehicle id="background.1" x="299.00" y="-1.60" angle="90.00" type="human" speed="0.04" pos="299.00" lane="e0_0" slope="0.00"/>
        <vehicle id="background.2" x="25.81" y="-1.60" angle="90.00" type="human" speed="13.85" pos="25.81" lane="e0_0" slope="0.00"/>
        <vehicle id="background.3" x="5.10" y="-1.60" angle="90.00" type="human" speed="13.69" pos="5.10" lane="e0_0" slope="0.00"/>
        <vehicle id="ego" x="86.60" y="-1.60" angle="90.00" type="ego_type" speed="6.25" pos="86.60" lane="e0_0" slope="0.00"/>
    </timestep>
    <timestep time="76.50">
        <vehicle id="background.1" x="299.00" y="-1.60" angle="90.00" type="human" speed="0.00" pos="299.00" lane="e0_0" slope="0.00"/>
        <vehicle id="background.2" x="32.53" y="-1.60" angle="90.00" type="human" speed="13.44" pos="32.53" lane="e0_0" slope="0.00"/>
        <vehicle id="background.3" x="11.94" y="-1.60" angle="90.00" type="human" speed="13.67" pos="11.94" lane="e0_0" slope="0.00"/>
        <vehicle id="ego" x="89.72" y="-1.60" angle="90.00" type="ego_type" speed="6.25" pos="89.72" lane="e0_0" slope="0.00"/>
    </timestep>
    <timestep time="77.00">
        <vehicle id="background.1" x="299.00" y="-1.60" angle="90.00" type="human" speed="0.00" pos="299.00" lane="e0_0" slope="0.00"/>
        <vehicle id="background.2" x="39.39" y="-1.60" angle="90.00" type="human" speed="13.72" pos="39.39" lane="e0_0" slope="0.00"/>
        <vehicle id="background.3" x="18.49" y="-1.60" angle="90.00" type="human" speed="13.10" pos="18.49" lane="e0_0" slope="0.00"/>
        <vehicle id="ego" x="92.47" y="-1.60" angle="90.00" type="ego_type" speed="5.50" pos="92.47" lane="e0_0" slope="0.00"/>
    </timestep>
    <timestep time="77.50">
        <vehicle id="background.1" x="299.00" y="-1.60" angle="90.00" type="human" speed="0.00" pos="299.00" lane="e0_0" slope="0.00"/>
        <vehicle id="background.2" x="46.24" y="-1.60" angle="90.00" type="human" speed="13.70" pos="46.24" lane="e0_0" slope="0.00"/>
        <vehicle id="background.3" x="25.09" y="-1.60" angle="90.00" type="human" speed="13.20" pos="25.09" lane="e0_0" slope="0.00"/>
        <vehicle id="ego" x="95.22" y="-1.60" angle="90.00" type="ego_type" speed="5.50" pos="95.22" lane="e0_0" slope="0.00"/>
    </timestep>
    <timestep time="78.00">
        <vehicle id="background.1" x="299.00" y="-1.60" angle="90.00" type="human" speed="0.00" pos="299.00" lane="e0_0" slope="0.00"/>
        <vehicle id="background.2" x="53.10" y="-1.60" angle="90.00" type="human" speed="13.71" pos="53.10" lane="e0_0" slope="0.00"/>
        <vehicle id="background.3" x="31.91" y="-1.60" angle="90.00" type="human" speed="13.63" pos="31.91" lane="e0_0" slope="0.00"/>
        <vehicle id="ego" x="97.97" y="-1.60" angle="90.00" type="ego_type" speed="5.50" pos="97.97" lane="e0_0" slope="0.00"/>
    </timestep>
    <timestep time="78.50">
        <vehicle id="background.1" x="299.00" y="-1.60" angle="90.00" type="human" speed="0.00" pos="299.00" lane="e0_0" slope="0.00"/>
        <vehicle id="background.2" x="59.97" y="-1.60" angle="90.00" type="human" speed="13.75" pos="59.97" lane="e0_0" slope="0.00"/>
        <vehicle id="background.3" x="38.61" y="-1.60" angle="90.00" type="human" speed="13.40" pos="38.61" lane="e0_0" slope="0.00"/>
        <vehicle id="ego" x="100.72" y="-1.60" angle="90.00" type="ego_type" speed="5.50" pos="100.72" lane="e0_0" slope="0.00"/>
    </timestep>
    <timestep time="79.00">