<?xml version="1.0" encoding="UTF-8"?>

<!-- generated on 2026-05-13 21:30:23 by Eclipse SUMO sumo Version 1.24.0
<sumoConfiguration xmlns:xsi="http://www.w3.org/2001/XMLSchema-instance" xsi:noNamespaceSchemaLocation="http://sumo.dlr.de/xsd/sumoConfiguration.xsd">

    <input>
        <net-file value="scenarios/simple_arterial/simple_arterial.net.xml"/>
        <route-files value="scenarios/simple_arterial/simple_arterial.rou.xml"/>
        <additional-files value="scenarios/simple_arterial/simple_arterial.tls.xml"/>
    </input>

    <output>
        <fcd-output value="runs/fcd_rlhf/episode_00002_seed_202.fcd.xml"/>
    </output>

    <time>
        <begin value="0"/>
        <end value="900"/>
        <step-length value="0.5"/>
    </time>

    <report>
        <no-warnings value="true"/>
    </report>

    <traci_server>
        <remote-port value="22810"/>
    </traci_server>

    <random_number>
        <seed value="202"/>
    </random_number>

</sumoConfiguration>
-->

<fcd-export xmlns:xsi="http://www.w3.org/2001/XMLSchema-instance" xsi:noNamespaceSchemaLocation="http://sumo.dlr.de/xsd/fcd_file.xsd">
    <timestep time="0.00"/>
    <timestep time="0.50"/>
    <timestep time="1.00"/>
    <timestep time="1.50"/>
    <timestep time="2.00"/>
    <timestep time="2.50"/>
    <timestep time="3.00"/>
    <timestep time="3.50"/>
    <timestep time="4.00"/>
    <timestep time="4.50"/>
    <timestep time="5.00"/>
    <timestep time="5.50"/>
    <timestep time="6.00"/>
    <timestep time="6.50"/>
    <timestep time="7.00"/>
    <timestep time="7.50"/>
    <timestep time="8.00"/>
    <timestep time="8.50"/>
    <timestep time="9.00"/>
    <timestep time="9.50"/>
    <timestep time="10.00"/>
    <timestep time="10.50"/>
    <timestep time="11.00"/>
    <timestep time="11.50"/>
    <timestep time="12.00"/>
    <timestep time="12.50"/>
    <timestep time="13.00"/>
    <timestep time="13.50"/>
    <timestep time="14.00"/>
    <timestep time="14.50"/>
    <timestep time="15.00"/>
    <timestep time="15.50"/>
    <timestep time="16.00"/>
    <timestep time="16.50"/>
    <timestep time="17.00"/>
    <timestep time="17.50"/>
    <timestep time="18.00"/>
    <timestep time="18.50"/>
    <timestep time="19.00"/>
    <timestep time="19.50"/>
    <timestep time="20.00"/>
    <timestep time="20.50"/>
    <timestep time="21.00"/>
    <timestep time="21.50"/>
    <timestep time="22.00"/>
    <timestep time="22.50"/>
    <timestep time="23.00"/>
    <timestep time="23.50"/>
    <timestep time="24.00"/>
    <timestep time="24.50"/>
    <timestep time="25.00"/>
    <timestep time="25.50"/>
    <timestep time="26.00"/>
    <timestep time="26.50"/>
    <timestep time="27.00"/>
    <timestep time="27.50"/>
    <timestep time="28.00"/>
    <timestep time="28.50"/>
    <timestep time="29.00"/>
    <timestep time="29.50"/>
    <timestep time="30.00"/>
    <timestep time="30.50"/>
    <timestep time="31.00"/>
    <timestep time="31.50">
        <vehicle id="ego" x="5.10" y="-1.60" angle="90.00" type="ego_type" speed="0.00" pos="5.10" lane="e0_0" slope="0.00"/>
    </timestep>
    <timestep time="32.00">
        <vehicle id="ego" x="5.10" y="-1.60" angle="90.00" type="ego_type" speed="0.00" pos="5.10" lane="e0_0" slope="0.00"/>
    </timestep>
    <timestep time="32.50">
        <vehicle id="ego" x="5.10" y="-1.60" angle="90.00" type="ego_type" speed="0.00" pos="5.10" lane="e0_0" slope="0.00"/>
    </timestep>
    <timestep time="33.00">
        <vehicle id="ego" x="5.10" y="-1.60" angle="90.00" type="ego_type" speed="0.00" pos="5.10" lane="e0_0" slope="0.00"/>
    </timestep>
    <timestep time="33.50">
        <vehicle id="ego" x="5.10" y="-1.60" angle="90.00" type="ego_type" speed="0.00" pos="5.10" lane="e0_0" slope="0.00"/>
    </timestep>
    <timestep time="34.00">
        <vehicle id="ego" x="5.10" y="-1.60" angle="90.00" type="ego_type" speed="0.00" pos="5.10" lane="e0_0" slope="0.00"/>
    </timestep>
    <timestep time="34.50">
        <vehicle id="ego" x="5.10" y="-1.60" angle="90.00" type="ego_type" speed="0.00" pos="5.10" lane="e0_0" slope="0.00"/>
    </timestep>
    <timestep time="35.00">
        <vehicle id="ego" x="5.10" y="-1.60" angle="90.00" type="ego_type" speed="0.00" pos="5.10" lane="e0_0" slope="0.00"/>
    </timestep>
    <timestep time="35.50">
        <vehicle id="ego" x="5.35" y="-1.60" angle="90.00" type="ego_type" speed="0.50" pos="5.35" lane="e0_0" slope="0.00"/>
    </timestep>
    <timestep time="36.00">
        <vehicle id="ego" x="5.60" y="-1.60" angle="90.00" type="ego_type" speed="0.50" pos="5.60" lane="e0_0" slope="0.00"/>
    </timestep>
    <timestep time="36.50">
        <vehicle id="ego" x="5.85" y="-1.60" angle="90.00" type="ego_type" speed="0.50" pos="5.85" lane="e0_0" slope="0.00"/>
    </timestep>
    <timestep time="37.00">
        <vehicle id="ego" x="6.10" y="-1.60" angle="90.00" type="ego_type" speed="0.50" pos="6.10" lane="e0_0" slope="0.00"/>
    </timestep>
    <timestep time="37.50">
        <vehicle id="ego" x="6.35" y="-1.60" angle="90.00" type="ego_type" speed="0.50" pos="6.35" lane="e0_0" slope="0.00"/>
    </timestep>
    <timestep time="38.00">
        <vehicle id="ego" x="6.60" y="-1.60" angle="90.00" type="ego_type" speed="0.50" pos="6.60" lane="e0_0" slope="0.00"/>
    </timestep>
    <timestep time="38.50">
        <vehicle id="ego" x="6.85" y="-1.60" angle="90.00" type="ego_type" speed="0.50" pos="6.85" lane="e0_0" slope="0.00"/>
    </timestep>
    <timestep time="39.00">
        <vehicle id="ego" x="7.10" y="-1.60" angle="90.00" type="ego_type" speed="0.50" pos="7.10" lane="e0_0" slope="0.00"/>
    </timestep>
    <timestep time="39.50">
        <vehicle id="ego" x="7.35" y="-1.60" angle="90.00" type="ego_type" speed="0.50" pos="7.35" lane="e0_0" slope="0.00"/>
    </timestep>
    <timestep time="40.00">
        <vehicle id="ego" x="7.85" y="-1.60" angle="90.00" type="ego_type" speed="1.00" pos="7.85" lane="e0_0" slope="0.00"/>
    </timestep>
    <timestep time="40.50">
        <vehicle id="ego" x="8.35" y="-1.60" angle="90.00" type="ego_type" speed="1.00" pos="8.35" lane="e0_0" slope="0.00"/>
    </timestep>
    <timestep time="41.00">
        <vehicle id="ego" x="8.85" y="-1.60" angle="90.00" type="ego_type" speed="1.00" pos="8.85" lane="e0_0" slope="0.00"/>
    </timestep>
    <timestep time="41.50">
        <vehicle id="ego" x="9.35" y="-1.60" angle="90.00" type="ego_type" speed="1.00" pos="9.35" lane="e0_0" slope="0.00"/>
    </timestep>
    <timestep time="42.00">
        <vehicle id="ego" x="9.85" y="-1.60" angle="90.00" type="ego_type" speed="1.00" pos="9.85" lane="e0_0" slope="0.00"/>
    </timestep>
    <timestep time="42.50">
        <vehicle id="ego" x="10.35" y="-1.60" angle="90.00" type="ego_type" speed="1.00" pos="10.35" lane="e0_0" slope="0.00"/>
    </timestep>
    <timestep time="43.00">
        <vehicle id="ego" x="10.85" y="-1.60" angle="90.00" type="ego_type" speed="1.00" pos="10.85" lane="e0_0" slope="0.00"/>
    </timestep>
    <timestep time="43.50">
        <vehicle id="ego" x="11.35" y="-1.60" angle="90.00" type="ego_type" speed="1.00" pos="11.35" lane="e0_0" slope="0.00"/>
    </timestep>
    <timestep time="44.00">
        <vehicle id="ego" x="11.85" y="-1.60" angle="90.00" type="ego_type" speed="1.00" pos="11.85" lane="e0_0" slope="0.00"/>
    </timestep>
    <timestep time="44.50">
        <vehicle id="ego" x="12.35" y="-1.60" angle="90.00" type="ego_type" speed="1.00" pos="12.35" lane="e0_0" slope="0.00"/>
    </timestep>
    <timestep time="45.00">
        <vehicle id="background.0" x="5.10" y="-1.60" angle="90.00" type="human" speed="0.25" pos="5.10" lane="e0_0" slope="0.00"/>
        <vehicle id="ego" x="12.85" y="-1.60" angle="90.00" type="ego_type" speed="1.00" pos="12.85" lane="e0_0" slope="0.00"/>
    </timestep>
    <timestep time="45.50">
        <vehicle id="background.0" x="5.21" y="-1.60" angle="90.00" type="human" speed="0.21" pos="5.21" lane="e0_0" slope="0.00"/>
        <vehicle id="ego" x="12.85" y="-1.60" angle="90.00" type="ego_type" speed="0.00" pos="12.85" lane="e0_0" slope="0.00"/>
    </timestep>
    <timestep time="46.00">
        <vehicle id="background.0" x="5.27" y="-1.60" angle="90.00" type="human" speed="0.12" pos="5.27" lane="e0_0" slope="0.00"/>
        <vehicle id="ego" x="12.85" y="-1.60" angle="90.00" type="ego_type" speed="0.00" pos="12.85" lane="e0_0" slope="0.00"/>
    </timestep>
    <timestep time="46.50">
        <vehicle id="background.0" x="5.30" y="-1.60" angle="90.00" type="human" speed="0.07" pos="5.30" lane="e0_0" slope="0.00"/>
        <vehicle id="ego" x="12.85" y="-1.60" angle="90.00" type="ego_type" speed="0.00" pos="12.85" lane="e0_0" slope="0.00"/>
    </timestep>
    <timestep time="47.00">
        <vehicle id="background.0" x="5.32" y="-1.60" angle="90.00" type="human" speed="0.04" pos="5.32" lane="e0_0" slope="0.00"/>
        <vehicle id="ego" x="12.85" y="-1.60" angle="90.00" type="ego_type" speed="0.00" pos="12.85" lane="e0_0" slope="0.00"/>
    </timestep>
    <timestep time="47.50">
        <vehicle id="background.0" x="5.34" y="-1.60" angle="90.00" type="human" speed="0.03" pos="5.34" lane="e0_0" slope="0.00"/>
        <vehicle id="ego" x="12.85" y="-1.60" angle="90.00" type="ego_type" speed="0.00" pos="12.85" lane="e0_0" slope="0.00"/>
    </timestep>
    <timestep time="48.00">
        <vehicle id="background.0" x="5.34" y="-1.60" angle="90.00" type="human" speed="0.01" pos="5.34" lane="e0_0" slope="0.00"/>
        <vehicle id="ego" x="12.85" y="-1.60" angle="90.00" type="ego_type" speed="0.00" pos="12.85" lane="e0_0" slope="0.00"/>
    </timestep>
    <timestep time="48.50">
        <vehicle id="background.0" x="5.34" y="-1.60" angle="90.00" type="human" speed="0.01" pos="5.34" lane="e0_0" slope="0.00"/>
        <vehicle id="ego" x="12.85" y="-1.60" angle="90.00" type="ego_type" speed="0.00" pos="12.85" lane="e0_0" slope="0.00"/>
    </timestep>
    <timestep time="49.00">
        <vehicle id="background.0" x="5.35" y="-1.60" angle="90.00" type="human" speed="0.00" pos="5.35" lane="e0_0" slope="0.00"/>
        <vehicle id="ego" x="12.85" y="-1.60" angle="90.00" type="ego_type" speed="0.00" pos="12.85" lane="e0_0" slope="0.00"/>
    </timestep>
    <timestep time="49.50">
        <vehicle id="background.0" x="5.35" y="-1.60" angle="90.00" type="human" speed="0.00" pos="5.35" lane="e0_0" slope="0.00"/>
        <vehicle id="ego" x="12.85" y="-1.60" angle="90.00" type="ego_type" speed="0.00" pos="12.85" lane="e0_0" slope="0.00"/>
    </timestep>
    <timestep time="50.00">
        <vehicle id="background.0" x="5.35" y="-1.60" angle="90.00" type="human" speed="0.00" pos="5.35" lane="e0_0" slope="0.00"/>
        <vehicle id="ego" x="13.10" y="-1.60" angle="90.00" type="ego_type" speed="0.50" pos="13.10" lane="e0_0" slope="0.00"/>
    </timestep>
    <timestep time="50.50">
        <vehicle id="background.0" x="5.47" y="-1.60" angle="90.00" type="human" speed="0.24" pos="5.47" lane="e0_0" slope="0.00"/>
        <vehicle id="ego" x="13.60" y="-1.60" angle="90.00" type="ego_type" speed="1.00" pos="13.60" lane="e0_0" slope="0.00"/>
    </timestep>
    <timestep time="51.00">
        <vehicle id="background.0" x="5.71" y="-1.60" angle="90.00" type="human" speed="0.48" pos="5.71" lane="e0_0" slope="0.00"/>
        <vehicle id="ego" x="14.10" y="-1.60" angle="90.00" type="ego_type" speed="1.00" pos="14.10" lane="e0_0" slope="0.00"/>
    </timestep>
    <timestep time="51.50">
        <vehicle id="background.0" x="6.05" y="-1.60" angle="90.00" type="human" speed="0.69" pos="6.05" lane="e0_0" slope="0.00"/>
        <vehicle id="ego" x="14.85" y="-1.60" angle="90.00" type="ego_type" speed="1.50" pos="14.85" lane="e0_0" slope="0.00"/>
    </timestep>
    <timestep time="52.00">
        <vehicle id="background.0" x="6.69" y="-1.60" angle="90.00" type="human" speed="1.27" pos="6.69" lane="e0_0" slope="0.00"/>
        <vehicle id="ego" x="16.10" y="-1.60" angle="90.00" type="ego_type" speed="2.50" pos="16.10" lane="e0_0" slope="0.00"/>
    </timestep>
    <timestep time="52.50">
        <vehicle id="background.0" x="7.57" y="-1.60" angle="90.00" type="human" speed="1.76" pos="7.57" lane="e0_0" slope="0.00"/>
        <vehicle id="ego" x="17.60" y="-1.60" angle="90.00" type="ego_type" speed="3.00" pos="17.60" lane="e0_0" slope="0.00"/>
    </timestep>
    <timestep time="53.00">
        <vehicle id="background.0" x="8.68" y="-1.60" angle="90.00" type="human" speed="2.22" pos="8.68" lane="e0_0" slope="0.00"/>
        <vehicle id="ego" x="19.35" y="-1.60" angle="90.00" type="ego_type" speed="3.50" pos="19.35" lane="e0_0" slope="0.00"/>
    </timestep>
    <timestep time="53.50">
        <vehicle id="background.0" x="10.20" y="-1.60" angle="90.00" type="human" speed="3.05" pos="10.20" lane="e0_0" slope="0.00"/>
        <vehicle id="ego" x="21.35" y="-1.60" angle="90.00" type="ego_type" speed="4.00" pos="21.35" lane="e0_0" slope="0.00"/>
    </timestep>
    <timestep time="54.00">
        <vehicle id="background.0" x="11.88" y="-1.60" angle="90.00" type="human" speed="3.35" pos="11.88" lane="e0_0" slope="0.00"/>
        <vehicle id="ego" x="23.60" y="-1.60" angle="90.00" type="ego_type" speed="4.50" pos="23.60" lane="e0_0" slope="0.00"/>
    </timestep>
    <timestep time="54.50">
        <vehicle id="background.0" x="13.98" y="-1.60" angle="90.00" type="human" speed="4.21" pos="13.98" lane="e0_0" slope="0.00"/>
        <vehicle id="background.1" x="5.10" y="-1.60" angle="90.00" type="human" speed="2.33" pos="5.10" lane="e0_0" slope="0.00"/>
        <vehicle id="ego" x="26.10" y="-1.60" angle="90.00" type="ego_type" speed="5.00" pos="26.10" lane="e0_0" slope="0.00"/>
    </timestep>
    <timestep time="55.00">
        <vehicle id="background.0" x="16.28" y="-1.60" angle="90.00" type="human" speed="4.59" pos="16.28" lane="e0_0" slope="0.00"/>
        <vehicle id="background.1" x="6.05" y="-1.60" angle="90.00" type="human" speed="1.90" pos="6.05" lane="e0_0" slope="0.00"/>
        <vehicle id="ego" x="29.10" y="-1.60" angle="90.00" type="ego_type" speed="6.00" pos="29.10" lane="e0_0" slope="0.00"/>
    </timestep>
    <timestep time="55.50">
        <vehicle id="background.0" x="19.04" y="-1.60" angle="90.00" type="human" speed="5.53" pos="19.04" lane="e0_0" slope="0.00"/>
        <vehicle id="background.1" x="7.48" y="-1.60" angle="90.00" type="human" speed="2.87" pos="7.48" lane="e0_0" slope="0.00"/>
        <vehicle id="ego" x="32.35" y="-1.60" angle="90.00" type="ego_type" speed="6.50" pos="32.35" lane="e0_0" slope="0.00"/>
    </timestep>
    <timestep time="56.00">
        <vehicle id="background.0" x="21.90" y="-1.60" angle="90.00" type="human" speed="5.70" pos="21.90" lane="e0_0" slope="0.00"/>
        <vehicle id="background.1" x="9.34" y="-1.60" angle="90.00" type="human" speed="3.72" pos="9.34" lane="e0_0" slope="0.00"/>
        <vehicle id="ego" x="35.23" y="-1.60" angle="90.00" type="ego_type" speed="5.75" pos="35.23" lane="e0_0" slope="0.00"/>
    </timestep>
    <timestep time="56.50">
        <vehicle id="background.0" x="24.70" y="-1.60" angle="90.00" type="human" speed="5.60" pos="24.70" lane="e0_0" slope="0.00"/>
        <vehicle id="background.1" x="11.69" y="-1.60" angle="90.00" type="human" speed="4.69" pos="11.69" lane="e0_0" slope="0.00"/>
        <vehicle id="ego" x="38.10" y="-1.60" angle="90.00" type="ego_type" speed="5.75" pos="38.10" lane="e0_0" slope="0.00"/>
    </timestep>
    <timestep time="57.00">
        <vehicle id="background.0" x="27.53" y="-1.60" angle="90.00" type="human" speed="5.66" pos="27.53" lane="e0_0" slope="0.00"/>
        <vehicle id="background.1" x="14.41" y="-1.60" angle="90.00" type="human" speed="5.44" pos="14.41" lane="e0_0" slope="0.00"/>
        <vehicle id="ego" x="40.98" y="-1.60" angle="90.00" type="ego_type" speed="5.75" pos="40.98" lane="e0_0" slope="0.00"/>
    </timestep>
    <timestep time="57.50">
        <vehicle id="background.0" x="30.41" y="-1.60" angle="90.00" type="human" speed="5.76" pos="30.41" lane="e0_0" slope="0.00"/>
        <vehicle id="background.1" x="17.00" y="-1.60" angle="90.00" type="human" speed="5.19" pos="17.00" lane="e0_0" slope="0.00"/>
        <vehicle id="background.2" x="5.10" y="-1.60" angle="90.00" type="human" speed="4.80" pos="5.10" lane="e0_0" slope="0.00"/>
        <vehicle id="ego" x="43.85" y="-1.60" angle="90.00" type="ego_type" speed="5.75" pos="43.85" lane="e0_0" slope="0.00"/>
    </timestep>
    <timestep time="58.00">
        <vehicle id="background.0" x="33.11" y="-1.60" angle="90.00" type="human" speed="5.40" pos="33.11" lane="e0_0" slope="0.00"/>
        <vehicle id="background.1" x="19.81" y="-1.60" angle="90.00" type="human" speed="5.62" pos="19.81" lane="e0_0" slope="0.00"/>
        <vehicle id="background.2" x="7.39" y="-1.60" angle="90.00" type="human" speed="4.58" pos="7.39" lane="e0_0" slope="0.00"/>
        <vehicle id="ego" x="46.73" y="-1.60" angle="90.00" type="ego_type" speed="5.75" pos="46.73" lane="e0_0" slope="0.00"/>
    </timestep>
    <timestep time="58.50">
        <vehicle id="background.0" x="35.90" y="-1.60" angle="90.00" type="human" speed="5.59" pos="35.90" lane="e0_0" slope="0.00"/>
        <vehicle id="background.1" x="22.48" y="-1.60" angle="90.00" type="human" speed="5.34" pos="22.48" lane="e0_0" slope="0.00"/>
        <vehicle id="background.2" x="9.92" y="-1.60" angle="90.00" type="human" speed="5.07" pos="9.92" lane="e0_0" slope="0.00"/>
        <vehicle id="ego" x="49.60" y="-1.60" angle="90.00" type="ego_type" speed="5.75" pos="49.60" lane="e0_0" slope="0.00"/>
    </timestep>
    <timestep time="59.00">
        <vehicle id="background.0" x="38.83" y="-1.60" angle="90.00" type="human" speed="5.87" pos="38.83" lane="e0_0" slope="0.00"/>
        <vehicle id="background.1" x="25.15" y="-1.60" angle="90.00" type="human" speed="5.33" pos="25.15" lane="e0_0" slope="0.00"/>
        <vehicle id="background.2" x="12.34" y="-1.60" angle="90.00" type="human" speed="4.84" pos="12.34" lane="e0_0" slope="0.00"/>
        <vehicle id="ego" x="52.48" y="-1.60" angle="90.00" type="ego_type" speed="5.75" pos="52.48" lane="e0_0" slope="0.00"/>
    </timestep>
    <timestep time="59.50">
        <vehicle id="background.0" x="41.56" y="-1.60" angle="90.00" type="human" speed="5.45" pos="41.56" lane="e0_0" slope="0.00"/>
        <vehicle id="background.1" x="28.00" y="-1.60" angle="90.00" type="human" speed="5.70" pos="28.00" lane="e0_0" slope="0.00"/>
        <vehicle id="background.2" x="14.92" y="-1.60" angle="90.00" type="human" speed="5.15" pos="14.92" lane="e0_0" slope="0.00"/>
        <vehicle id="ego" x="55.35" y="-1.60" angle="90.00" type="ego_type" speed="5.75" pos="55.35" lane="e0_0" slope="0.00"/>
    </timestep>
    <timestep time="60.00">
        <vehicle id="background.0" x="44.42" y="-1.60" angle="90.00" type="human" speed="5.73" pos="44.42" lane="e0_0" slope="0.00"/>
        <vehicle id="background.1" x="30.72" y="-1.60" angle="90.00" type="human" speed="5.43" pos="30.72" lane="e0_0" slope="0.00"/>
        <vehicle id="background.2" x="17.54" y="-1.60" angle="90.00" type="human" speed="5.25" pos="17.54" lane="e0_0" slope="0.00"/>
        <vehicle id="ego" x="58.23" y="-1.60" angle="90.00" type="ego_type" speed="5.75" pos="58.23" lane="e0_0" slope="0.00"/>
    </timestep>
    <timestep time="60.50">
        <vehicle id="background.0" x="47.39" y="-1.60" angle="90.00" type="human" speed="5.94" pos="47.39" lane="e0_0" slope="0.00"/>
        <vehicle id="background.1" x="33.49" y="-1.60" angle="90.00" type="human" speed="5.54" pos="33.49" lane="e0_0" slope="0.00"/>
        <vehicle id="background.2" x="20.10" y="-1.60" angle="90.00" type="human" speed="5.12" pos="20.10" lane="e0_0" slope="0.00"/>
        <vehicle id="ego" x="61.10" y="-1.60" angle="90.00" type="ego_type" speed="5.75" pos="61.10" lane="e0_0" slope="0.00"/>
    </timestep>
    <timestep time="61.00">
        <vehicle id="background.0" x="50.24" y="-1.60" angle="90.00" type="human" speed="5.70" pos="50.24" lane="e0_0" slope="0.00"/>
        <vehicle id="background.1" x="36.51" y="-1.60" angle="90.00" type="human" speed="6.05" pos="36.51" lane="e0_0" slope="0.00"/>
        <vehicle id="background.2" x="22.85" y="-1.60" angle="90.00" type="human" speed="5.49" pos="22.85" lane="e0_0" slope="0.00"/>
        <vehicle id="ego" x="63.98" y="-1.60" angle="90.00" type="ego_type" speed="5.75" pos="63.98" lane="e0_0" slope="0.00"/>
    </timestep>
    <timestep time="61.50">
        <vehicle id="background.0" x="53.22" y="-1.60" angle="90.00" type="human" speed="5.95" pos="53.22" lane="e0_0" slope="0.00"/>
        <vehicle id="background.1" x="39.38" y="-1.60" angle="90.00" type="human" speed="5.73" pos="39.38" lane="e0_0" slope="0.00"/>
        <vehicle id="background.2" x="25.66" y="-1.60" angle="90.00" type="human" speed="5.62" pos="25.66" lane="e0_0" slope="0.00"/>
        <vehicle id="ego" x="66.85" y="-1.60" angle="90.00" type="ego_type" speed="5.75" pos="66.85" lane="e0_0" slope="0.00"/>
    </timestep>
    <timestep time="62.00">
        <vehicle id="background.0" x="56.09" y="-1.60" angle="90.00" type="human" speed="5.75" pos="56.09" lane="e0_0" slope="0.00"/>
        <vehicle id="background.1" x="42.21" y="-1.60" angle="90.00" type="human" speed="5.67" pos="42.21" lane="e0_0" slope="0.00"/>
        <vehicle id="background.2" x="28.41" y="-1.60" angle="90.00" type="human" speed="5.50" pos="28.41" lane="e0_0" slope="0.00"/>
        <vehicle id="ego" x="69.72" y="-1.60" angle="90.00" type="ego_type" speed="5.75" pos="69.72" lane="e0_0" slope="0.00"/>
    </timestep>
    <timestep time="62.50">
        <vehicle id="background.0" x="58.82" y="-1.60" angle="90.00" type="human" speed="5.45" pos="58.82" lane="e0_0" slope="0.00"/>
        <vehicle id="background.1" x="45.22" y="-1.60" angle="90.00" type="human" speed="6.01" pos="45.22" lane="e0_0" slope="0.00"/>
        <vehicle id="background.2" x="31.27" y="-1.60" angle="90.00" type="human" speed="5.73" pos="31.27" lane="e0_0" slope="0.00"/>
        <vehicle id="ego" x="72.60" y="-1.60" angle="90.00" type="ego_type" speed="5.75" pos="72.60" lane="e0_0" slope="0.00"/>
    </timestep>
    <timestep time="63.00">
        <vehicle id="background.0" x="61.78" y="-1.60" angle="90.00" type="human" speed="5.92" pos="61.78" lane="e0_0" slope="0.00"/>
        <vehicle id="background.1" x="47.99" y="-1.60" angle="90.00" type="human" speed="5.54" pos="47.99" lane="e0_0" slope="0.00"/>
        <vehicle id="background.2" x="34.21" y="-1.60" angle="90.00" type="human" speed="5.87" pos="34.21" lane="e0_0" slope="0.00"/>
        <vehicle id="ego" x="75.47" y="-1.60" angle="90.00" type="ego_type" speed="5.75" pos="75.47" lane="e0_0" slope="0.00"/>
    </timestep>
    <timestep time="63.50">
        <vehicle id="background.0" x="64.63" y="-1.60" angle="90.00" type="human" speed="5.71" pos="64.63" lane="e0_0" slope="0.00"/>
        <vehicle id="background.1" x="50.84" y="-1.60" angle="90.00" type="human" speed="5.70" pos="50.84" lane="e0_0" slope="0.00"/>
        <vehicle id="background.2" x="37.05" y="-1.60" angle="90.00" type="human" speed="5.67" pos="37.05" lane="e0_0" slope="0.00"/>
        <vehicle id="ego" x="77.97" y="-1.60" angle="90.00" type="ego_type" speed="5.00" pos="77.97" lane="e0_0" slope="0.00"/>
    </timestep>
    <timestep time="64.00">
        <vehicle id="background.0" x="67.23" y="-1.60" angle="90.00" type="human" speed="5.19" pos="67.23" lane="e0_0" slope="0.00"/>
        <vehicle id="background.1" x="53.63" y="-1.60" angle="90.00" type="human" speed="5.59" pos="53.63" lane="e0_0" slope="0.00"/>
        <vehicle id="background.2" x="39.96" y="-1.60" angle="90.00" type="human" speed="5.83" pos="39.96" lane="e0_0" slope="0.00"/>
        <vehicle id="ego" x="80.10" y="-1.60" angle="90.00" type="ego_type" speed="4.25" pos="80.10" lane="e0_0" slope="0.00"/>
    </timestep>
    <timestep time="64.50">
        <vehicle id="background.0" x="69.53" y="-1.60" angle="90.00" type="human" speed="4.60" pos="69.53" lane="e0_0" slope="0.00"/>
        <vehicle id="background.1" x="56.24" y="-1.60" angle="90.00" type="human" speed="5.21" pos="56.24" lane="e0_0" slope="0.00"/>
        <vehicle id="background.2" x="42.81" y="-1.60" angle="90.00" type="human" speed="5.70" pos="42.81" lane="e0_0" slope="0.00"/>
        <vehicle id="ego" x="82.22" y="-1.60" angle="90.00" type="ego_type" speed="4.25" pos="82.22" lane="e0_0" slope="0.00"/>
    </timestep>
    <timestep time="65.00">
        <vehicle id="background.0" x="71.82" y="-1.60" angle="90.00" type="human" speed="4.58" pos="71.82" lane="e0_0" slope="0.00"/>
        <vehicle id="background.1" x="58.61" y="-1.60" angle="90.00" type="human" speed="4.74" pos="58.61" lane="e0_0" slope="0.00"/>
        <vehicle id="background.2" x="45.53" y="-1.60" angle="90.00" type="human" speed="5.44" pos="45.53" lane="e0_0" slope="0.00"/>
        <vehicle id="ego" x="84.35" y="-1.60" angle="90.00" type="ego_type" speed="4.25" pos="84.35" lane="e0_0" slope="0.00"/>
    </timestep>
    <timestep time="65.50">
        <vehicle id="background.0" x="74.13" y="-1.60" angle="90.00" type="human" speed="4.62" pos="74.13" lane="e0_0" slope="0.00"/>
        <vehicle id="background.1" x="61.13" y="-1.60" angle="90.00" type="human" speed="5.04" pos="61.13" lane="e0_0" slope="0.00"/>
        <vehicle id="background.2" x="47.91" y="-1.60" angle="90.00" type="human" speed="4.75" pos="47.91" lane="e0_0" slope="0.00"/>
        <vehicle id="ego" x="86.48" y="-1.60" angle="90.00" type="ego_type" speed="4.25" pos="86.47" lane="e0_0" slope="0.00"/>
    </timestep>
    <timestep time="66.00">
        <vehicle id="background.0" x="76.21" y="-1.60" angle="90.00" type="human" speed="4.17" pos="76.21" lane="e0_0" slope="0.00"/>
        <vehicle id="background.1" x="63.62" y="-1.60" angle="90.00" type="human" speed="4.97" pos="63.62" lane="e0_0" slope="0.00"/>
        <vehicle id="background.2" x="50.48" y="-1.60" angle="90.00" type="human" speed="5.15" pos="50.48" lane="e0_0" slope="0.00"/>
        <vehicle id="ego" x="88.60" y="-1.60" angle="90.00" type="ego_type" speed="4.25" pos="88.60" lane="e0_0" slope="0.00"/>
    </timestep>
    <timestep time="66.50">
        <vehicle id="background.0" x="78.30" y="-1.60" angle="90.00" type="human" speed="4.17" pos="78.30" lane="e0_0" slope="0.00"/>
        <vehicle id="background.1" x="65.98" y="-1.60" angle="90.00" type="human" speed="4.72" pos="65.98" lane="e0_0" slope="0.00"/>
        <vehicle id="background.2" x="52.90" y="-1.60" angle="90.00" type="human" speed="4.85" pos="52.90" lane="e0_0" slope="0.00"/>
        <vehicle id="ego" x="90.72" y="-1.60" angle="90.00" type="ego_type" speed="4.25" pos="90.72" lane="e0_0" slope="0.00"/>
    </timestep>
    <timestep time="67.00">
        <vehicle id="background.0" x="80.60" y="-1.60" angle="90.00" type="human" speed="4.60" pos="80.60" lane="e0_0" slope="0.00"/>
        <vehicle id="background.1" x="68.17" y="-1.60" angle="90.00" type="human" speed="4.38" pos="68.17" lane="e0_0" slope="0.00"/>
        <vehicle id="background.2" x="55.43" y="-1.60" angle="90.00" type="human" speed="5.06" pos="55.43" lane="e0_0" slope="0.00"/>
        <vehicle id="ego" x="92.85" y="-1.60" angle="90.00" type="ego_type" speed="4.25" pos="92.85" lane="e0_0" slope="0.00"/>
    </timestep>
    <timestep time="67.50">
        <vehicle id="background.0" x="82.84" y="-1.60" angle="90.00" type="human" speed="4.48" pos="82.84" lane="e0_0" slope="0.00"/>
        <vehicle id="background.1" x="70.32" y="-1.60" angle="90.00" type="human" speed="4.30" pos="70.32" lane="e0_0" slope="0.00"/>
        <vehicle id="background.2" x="57.66" y="-1.60" angle="90.00" type="human" speed="4.45" pos="57.66" lane="e0_0" slope="0.00"/>
        <vehicle id="ego" x="94.97" y="-1.60" angle="90.00" type="ego_type" speed="4.25" pos="94.97" lane="e0_0" slope="0.00"/>
    </timestep>
    <timestep time="68.00">
        <vehicle id="background.0" x="85.05" y="-1.60" angle="90.00" type="human" speed="4.41" pos="85.05" lane="e0_0" slope="0.00"/>
        <vehicle id="background.1" x="72.64" y="-1.60" angle="90.00" type="human" speed="4.64" pos="72.64" lane="e0_0" slope="0.00"/>
        <vehicle id="background.2" x="59.99" y="-1.60" angle="90.00" type="human" speed="4.66" pos="59.99" lane="e0_0" slope="0.00"/>
        <vehicle id="ego" x="97.10" y="-1.60" angle="90.00" type="ego_type" speed="4.25" pos="97.10" lane="e0_0" slope="0.00"/>
    </timestep>
    <timestep time="68.50">
        <vehicle id="background.0" x="87.17" y="-1.60" angle="90.00" type="human" speed="4.24" pos="87.17" lane="e0_0" slope="0.00"/>
        <vehicle id="background.1" x="74.82" y="-1.60" angle="90.00" type="human" speed="4.36" pos="74.82" lane="e0_0" slope="0.00"/>
        <vehicle id="background.2" x="62.29" y="-1.60" angle="90.00" type="human" speed="4.61" pos="62.29" lane="e0_0" slope="0.00"/>
        <vehicle id="ego" x="99.22" y="-1.60" angle="90.00" type="ego_type" speed="4.25" pos="99.22" lane="e0_0" slope="0.00"/>
    </timestep>
    <timestep time="69.00">
        <vehicle id="background.0" x="89.21" y="-1.60" angle="90.00" type="human" speed="4.08" pos="89.21" lane="e0_0" slope="0.00"/>
        <vehicle id="background.1" x="76.98" y="-1.60" angle="90.00" type="human" speed="4.32" pos="76.98" lane="e0_0" slope="0.00"/>
        <vehicle id="background.2" x="64.58" y="-1.60" angle="90.00" type="human" speed="4.58" pos="64.58" lane="e0_0" slope="0.00"/>
        <vehicle id="ego" x="101.35" y="-1.60" angle="90.00" type="ego_type" speed="4.25" pos="101.35" lane="e0_0" slope="0.00"/>
    </timestep>
    <timestep time="69.50">
        <vehicle id="background.0" x="91.41" y="-1.60" angle="90.00" type="human" speed="4.40" pos="91.41" lane="e0_0" slope="0.00"/>