<?xml version="1.0" encoding="UTF-8"?>

<!-- generated on 2026-05-13 21:30:21 by Eclipse SUMO sumo Version 1.24.0
<sumoConfiguration xmlns:xsi="http://www.w3.org/2001/XMLSchema-instance" xsi:noNamespaceSchemaLocation="http://sumo.dlr.de/xsd/sumoConfiguration.xsd">

    <input>
        <net-file value="scenarios/simple_arterial/simple_arterial.net.xml"/>
        <route-files value="scenarios/simple_arterial/simple_arterial.rou.xml"/>
        <additional-files value="scenarios/simple_arterial/simple_arterial.tls.xml"/>
    </input>

    <output>
        <fcd-output value="runs/fcd_rlhf/episode_00001_seed_201.fcd.xml"/>
    </output>

    <time>
        <begin value="0"/>
        <end value="900"/>
        <step-length value="0.5"/>
    </time>

    <report>
        <no-warnings value="true"/>
    </report>

    <traci_server>
        <remote-port value="22810"/>
    </traci_server>

    <random_number>
        <seed value="201"/>
    </random_number>

</sumoConfiguration>
-->

<fcd-export xmlns:xsi="http://www.w3.org/2001/XMLSchema-instance" xsi:noNamespaceSchemaLocation="http://sumo.dlr.de/xsd/fcd_file.xsd">
    <timestep time="0.00"/>
    <timestep time="0.50"/>
    <timestep time="1.00"/>
    <timestep time="1.50"/>
    <timestep time="2.00"/>
    <timestep time="2.50"/>
    <timestep time="3.00"/>
    <timestep time="3.50"/>
    <timestep time="4.00"/>
    <timestep time="4.50"/>
    <timestep time="5.00"/>
    <timestep time="5.50"/>
    <timestep time="6.00"/>
    <timestep time="6.50">
        <vehicle id="background.0" x="5.10" y="-1.60" angle="90.00" type="human" speed="12.49" pos="5.10" lane="e0_0" slope="0.00"/>
    </timestep>
    <timestep time="7.00">
        <vehicle id="background.0" x="11.29" y="-1.60" angle="90.00" type="human" speed="12.38" pos="11.29" lane="e0_0" slope="0.00"/>
    </timestep>
    <timestep time="7.50">
        <vehicle id="background.0" x="17.51" y="-1.60" angle="90.00" type="human" speed="12.45" pos="17.51" lane="e0_0" slope="0.00"/>
    </timestep>
    <timestep time="8.00">
        <vehicle id="background.0" x="23.69" y="-1.60" angle="90.00" type="human" speed="12.36" pos="23.69" lane="e0_0" slope="0.00"/>
    </timestep>
    <timestep time="8.50">
        <vehicle id="background.0" x="29.76" y="-1.60" angle="90.00" type="human" speed="12.14" pos="29.76" lane="e0_0" slope="0.00"/>
    </timestep>
    <timestep time="9.00">
        <vehicle id="background.0" x="35.77" y="-1.60" angle="90.00" type="human" speed="12.00" pos="35.77" lane="e0_0" slope="0.00"/>
    </timestep>
    <timestep time="9.50">
        <vehicle id="background.0" x="41.92" y="-1.60" angle="90.00" type="human" speed="12.31" pos="41.92" lane="e0_0" slope="0.00"/>
    </timestep>
    <timestep time="10.00">
        <vehicle id="background.0" x="47.92" y="-1.60" angle="90.00" type="human" speed="11.99" pos="47.92" lane="e0_0" slope="0.00"/>
    </timestep>
    <timestep time="10.50">
        <vehicle id="background.0" x="54.06" y="-1.60" angle="90.00" type="human" speed="12.29" pos="54.06" lane="e0_0" slope="0.00"/>
    </timestep>
    <timestep time="11.00">
        <vehicle id="background.0" x="60.06" y="-1.60" angle="90.00" type="human" speed="11.99" pos="60.06" lane="e0_0" slope="0.00"/>
    </timestep>
    <timestep time="11.50">
        <vehicle id="background.0" x="66.23" y="-1.60" angle="90.00" type="human" speed="12.34" pos="66.23" lane="e0_0" slope="0.00"/>
    </timestep>
    <timestep time="12.00">
        <vehicle id="background.0" x="72.33" y="-1.60" angle="90.00" type="human" speed="12.20" pos="72.33" lane="e0_0" slope="0.00"/>
    </timestep>
    <timestep time="12.50">
        <vehicle id="background.0" x="78.50" y="-1.60" angle="90.00" type="human" speed="12.33" pos="78.50" lane="e0_0" slope="0.00"/>
    </timestep>
    <timestep time="13.00">
        <vehicle id="background.0" x="84.59" y="-1.60" angle="90.00" type="human" speed="12.19" pos="84.59" lane="e0_0" slope="0.00"/>
    </timestep>
    <timestep time="13.50">
        <vehicle id="background.0" x="90.81" y="-1.60" angle="90.00" type="human" speed="12.43" pos="90.81" lane="e0_0" slope="0.00"/>
    </timestep>
    <timestep time="14.00">
        <vehicle id="background.0" x="97.02" y="-1.60" angle="90.00" type="human" speed="12.43" pos="97.02" lane="e0_0" slope="0.00"/>
    </timestep>
    <timestep time="14.50">
        <vehicle id="background.0" x="103.17" y="-1.60" angle="90.00" type="human" speed="12.29" pos="103.17" lane="e0_0" slope="0.00"/>
    </timestep>
    <timestep time="15.00">
        <vehicle id="background.0" x="109.21" y="-1.60" angle="90.00" type="human" speed="12.08" pos="109.21" lane="e0_0" slope="0.00"/>
    </timestep>
    <timestep time="15.50">
        <vehicle id="background.0" x="115.23" y="-1.60" angle="90.00" type="human" speed="12.04" pos="115.23" lane="e0_0" slope="0.00"/>
    </timestep>
    <timestep time="16.00">
        <vehicle id="background.0" x="121.42" y="-1.60" angle="90.00" type="human" speed="12.37" pos="121.42" lane="e0_0" slope="0.00"/>
    </timestep>
    <timestep time="16.50">
        <vehicle id="background.0" x="127.56" y="-1.60" angle="90.00" type="human" speed="12.29" pos="127.56" lane="e0_0" slope="0.00"/>
    </timestep>
    <timestep time="17.00">
        <vehicle id="background.0" x="133.56" y="-1.60" angle="90.00" type="human" speed="11.99" pos="133.56" lane="e0_0" slope="0.00"/>
    </timestep>
    <timestep time="17.50">
        <vehicle id="background.0" x="139.74" y="-1.60" angle="90.00" type="human" speed="12.37" pos="139.74" lane="e0_0" slope="0.00"/>
    </timestep>
    <timestep time="18.00">
        <vehicle id="background.0" x="145.85" y="-1.60" angle="90.00" type="human" speed="12.21" pos="145.85" lane="e0_0" slope="0.00"/>
    </timestep>
    <timestep time="18.50">
        <vehicle id="background.0" x="151.85" y="-1.60" angle="90.00" type="human" speed="12.00" pos="151.85" lane="e0_0" slope="0.00"/>
    </timestep>
    <timestep time="19.00">
        <vehicle id="background.0" x="157.99" y="-1.60" angle="90.00" type="human" speed="12.27" pos="157.99" lane="e0_0" slope="0.00"/>
    </timestep>
    <timestep time="19.50">
        <vehicle id="background.0" x="164.16" y="-1.60" angle="90.00" type="human" speed="12.34" pos="164.16" lane="e0_0" slope="0.00"/>
    </timestep>
    <timestep time="20.00">
        <vehicle id="background.0" x="170.38" y="-1.60" angle="90.00" type="human" speed="12.45" pos="170.38" lane="e0_0" slope="0.00"/>
    </timestep>
    <timestep time="20.50">
        <vehicle id="background.0" x="176.43" y="-1.60" angle="90.00" type="human" speed="12.10" pos="176.43" lane="e0_0" slope="0.00"/>
    </timestep>
    <timestep time="21.00">
        <vehicle id="background.0" x="182.57" y="-1.60" angle="90.00" type="human" speed="12.27" pos="182.57" lane="e0_0" slope="0.00"/>
    </timestep>
    <timestep time="21.50">
        <vehicle id="background.0" x="188.79" y="-1.60" angle="90.00" type="human" speed="12.43" pos="188.79" lane="e0_0" slope="0.00"/>
    </timestep>
    <timestep time="22.00">
        <vehicle id="background.0" x="194.81" y="-1.60" angle="90.00" type="human" speed="12.05" pos="194.81" lane="e0_0" slope="0.00"/>
    </timestep>
    <timestep time="22.50">
        <vehicle id="background.0" x="200.94" y="-1.60" angle="90.00" type="human" speed="12.25" pos="200.94" lane="e0_0" slope="0.00"/>
    </timestep>
    <timestep time="23.00">
        <vehicle id="background.0" x="207.08" y="-1.60" angle="90.00" type="human" speed="12.28" pos="207.08" lane="e0_0" slope="0.00"/>
    </timestep>
    <timestep time="23.50">
        <vehicle id="background.0" x="213.10" y="-1.60" angle="90.00" type="human" speed="12.04" pos="213.10" lane="e0_0" slope="0.00"/>
    </timestep>
    <timestep time="24.00">
        <vehicle id="background.0" x="219.16" y="-1.60" angle="90.00" type="human" speed="12.12" pos="219.16" lane="e0_0" slope="0.00"/>
    </timestep>
    <timestep time="24.50">
        <vehicle id="background.0" x="225.28" y="-1.60" angle="90.00" type="human" speed="12.24" pos="225.28" lane="e0_0" slope="0.00"/>
    </timestep>
    <timestep time="25.00">
        <vehicle id="background.0" x="231.47" y="-1.60" angle="90.00" type="human" speed="12.38" pos="231.47" lane="e0_0" slope="0.00"/>
    </timestep>
    <timestep time="25.50">
        <vehicle id="background.0" x="237.54" y="-1.60" angle="90.00" type="human" speed="12.13" pos="237.54" lane="e0_0" slope="0.00"/>
    </timestep>
    <timestep time="26.00">
        <vehicle id="background.0" x="243.57" y="-1.60" angle="90.00" type="human" speed="12.05" pos="243.57" lane="e0_0" slope="0.00"/>
    </timestep>
    <timestep time="26.50">
        <vehicle id="background.0" x="249.65" y="-1.60" angle="90.00" type="human" speed="12.16" pos="249.65" lane="e0_0" slope="0.00"/>
    </timestep>
    <timestep time="27.00">
        <vehicle id="background.0" x="255.75" y="-1.60" angle="90.00" type="human" speed="12.21" pos="255.75" lane="e0_0" slope="0.00"/>
    </timestep>
    <timestep time="27.50">
        <vehicle id="background.0" x="261.77" y="-1.60" angle="90.00" type="human" speed="12.02" pos="261.77" lane="e0_0" slope="0.00"/>
    </timestep>
    <timestep time="28.00">
        <vehicle id="background.0" x="267.96" y="-1.60" angle="90.00" type="human" speed="12.39" pos="267.96" lane="e0_0" slope="0.00"/>
    </timestep>
    <timestep time="28.50">
        <vehicle id="background.0" x="273.96" y="-1.60" angle="90.00" type="human" speed="12.00" pos="273.96" lane="e0_0" slope="0.00"/>
    </timestep>
    <timestep time="29.00">
        <vehicle id="background.0" x="280.10" y="-1.60" angle="90.00" type="human" speed="12.27" pos="280.10" lane="e0_0" slope="0.00"/>
    </timestep>
    <timestep time="29.50">
        <vehicle id="background.0" x="286.22" y="-1.60" angle="90.00" type="human" speed="12.23" pos="286.22" lane="e0_0" slope="0.00"/>
    </timestep>
    <timestep time="30.00">
        <vehicle id="background.0" x="292.27" y="-1.60" angle="90.00" type="human" speed="12.11" pos="292.27" lane="e0_0" slope="0.00"/>
    </timestep>
    <timestep time="30.50">
        <vehicle id="background.0" x="298.31" y="-1.60" angle="90.00" type="human" speed="12.07" pos="298.31" lane="e0_0" slope="0.00"/>
    </timestep>
    <timestep time="31.00">
        <vehicle id="background.0" x="304.34" y="-1.60" angle="90.00" type="human" speed="12.26" pos="4.34" lane="e1_0" slope="0.00"/>
    </timestep>
    <timestep time="31.50">
        <vehicle id="background.0" x="310.37" y="-1.60" angle="90.00" type="human" speed="12.07" pos="10.37" lane="e1_0" slope="0.00"/>
    </timestep>
    <timestep time="32.00">
        <vehicle id="background.0" x="316.45" y="-1.60" angle="90.00" type="human" speed="12.16" pos="16.45" lane="e1_0" slope="0.00"/>
    </timestep>
    <timestep time="32.50">
        <vehicle id="background.0" x="322.64" y="-1.60" angle="90.00" type="human" speed="12.40" pos="22.64" lane="e1_0" slope="0.00"/>
    </timestep>
    <timestep time="33.00">
        <vehicle id="background.0" x="328.71" y="-1.60" angle="90.00" type="human" speed="12.13" pos="28.71" lane="e1_0" slope="0.00"/>
    </timestep>
    <timestep time="33.50">
        <vehicle id="background.0" x="334.84" y="-1.60" angle="90.00" type="human" speed="12.26" pos="34.84" lane="e1_0" slope="0.00"/>
    </timestep>
    <timestep time="34.00">
        <vehicle id="background.0" x="341.07" y="-1.60" angle="90.00" type="human" speed="12.45" pos="41.07" lane="e1_0" slope="0.00"/>
    </timestep>
    <timestep time="34.50">
        <vehicle id="background.0" x="347.16" y="-1.60" angle="90.00" type="human" speed="12.18" pos="47.16" lane="e1_0" slope="0.00"/>
    </timestep>
    <timestep time="35.00"/>
    <timestep time="35.50"/>
    <timestep time="36.00"/>
    <timestep time="36.50"/>
    <timestep time="37.00"/>
    <timestep time="37.50"/>
    <timestep time="38.00"/>
    <timestep time="38.50"/>
    <timestep time="39.00"/>
    <timestep time="39.50"/>
    <timestep time="40.00"/>
    <timestep time="40.50"/>
    <timestep time="41.00"/>
    <timestep time="41.50"/>
    <timestep time="42.00"/>
    <timestep time="42.50"/>
    <timestep time="43.00"/>
    <timestep time="43.50"/>
    <timestep time="44.00"/>
    <timestep time="44.50"/>
    <timestep time="45.00"/>
    <timestep time="45.50"/>
    <timestep time="46.00"/>
    <timestep time="46.50"/>
    <timestep time="47.00"/>
    <timestep time="47.50"/>
    <timestep time="48.00"/>
    <timestep time="48.50"/>
    <timestep time="49.00"/>
    <timestep time="49.50"/>
    <timestep time="50.00"/>
    <timestep time="50.50"/>
    <timestep time="51.00"/>
    <timestep time="51.50"/>
    <timestep time="52.00"/>
    <timestep time="52.50"/>
    <timestep time="53.00"/>
    <timestep time="53.50"/>
    <timestep time="54.00"/>
    <timestep time="54.50"/>
    <timestep time="55.00"/>
    <timestep time="55.50"/>
    <timestep time="56.00"/>
    <timestep time="56.50"/>
    <timestep time="57.00"/>
    <timestep time="57.50"/>
    <timestep time="58.00"/>
    <timestep time="58.50"/>
    <timestep time="59.00"/>
    <timestep time="59.50"/>
    <timestep time="60.00"/>
    <timestep time="60.50"/>
    <timestep time="61.00"/>
    <timestep time="61.50"/>
    <timestep time="62.00"/>
    <timestep time="62.50"/>
    <timestep time="63.00"/>
    <timestep time="63.50"/>
    <timestep time="64.00"/>
    <timestep time="64.50"/>
    <timestep time="65.00"/>
    <timestep time="65.50"/>
    <timestep time="66.00"/>
    <timestep time="66.50"/>
    <timestep time="67.00"/>
    <timestep time="67.50"/>
    <timestep time="68.00"/>
    <timestep time="68.50"/>
    <timestep time="69.00"/>
    <timestep time="69.50"/>
    <timestep time="70.00"/>
    <timestep time="70.50"/>
    <timestep time="71.00"/>
    <timestep time="71.50"/>
    <timestep time="72.00"/>
    <timestep time="72.50"/>
    <timestep time="73.00"/>
    <timestep time="73.50"/>
    <timestep time="74.00"/>
    <timestep time="74.50"/>
    <timestep time="75.00"/>
    <timestep time="75.50"/>
    <timestep time="76.00"/>
    <timestep time="76.50"/>
    <timestep time="77.00"/>
    <timestep time="77.50"/>
    <timestep time="78.00"/>
    <timestep time="78.50"/>
    <timestep time="79.00"/>
    <timestep time="79.50"/>
    <timestep time="80.00"/>
    <timestep time="80.50"/>
    <timestep time="81.00"/>
    <timestep time="81.50"/>
    <timestep time="82.00"/>
    <timestep time="82.50"/>
    <timestep time="83.00"/>
    <timestep time="83.50"/>
    <timestep time="84.00"/>
    <timestep time="84.50"/>
    <timestep time="85.00"/>
    <timestep time="85.50"/>
    <timestep time="86.00"/>
    <timestep time="86.50"/>
    <timestep time="87.00"/>
    <timestep time="87.50"/>
    <timestep time="88.00"/>
    <timestep time="88.50"/>
    <timestep time="89.00">
        <vehicle id="background.1" x="5.10" y="-1.60" angle="90.00" type="human" speed="13.89" pos="5.10" lane="e0_0" slope="0.00"/>
    </timestep>
    <timestep time="89.50">
        <vehicle id="background.1" x="11.97" y="-1.60" angle="90.00" type="human" speed="13.73" pos="11.97" lane="e0_0" slope="0.00"/>
    </timestep>
    <timestep time="90.00">
        <vehicle id="background.1" x="18.84" y="-1.60" angle="90.00" type="human" speed="13.75" pos="18.84" lane="e0_0" slope="0.00"/>
        <vehicle id="ego" x="5.10" y="-1.60" angle="90.00" type="ego_type" speed="0.00" pos="5.10" lane="e0_0" slope="0.00"/>
    </timestep>
    <timestep time="90.50">
        <vehicle id="background.1" x="25.61" y="-1.60" angle="90.00" type="human" speed="13.53" pos="25.61" lane="e0_0" slope="0.00"/>
        <vehicle id="ego" x="5.10" y="-1.60" angle="90.00" type="ego_type" speed="0.00" pos="5.10" lane="e0_0" slope="0.00"/>
    </timestep>
    <timestep time="91.00">
        <vehicle id="background.1" x="32.49" y="-1.60" angle="90.00" type="human" speed="13.78" pos="32.49" lane="e0_0" slope="0.00"/>
        <vehicle id="ego" x="5.10" y="-1.60" angle="90.00" type="ego_type" speed="0.00" pos="5.10" lane="e0_0" slope="0.00"/>
    </timestep>
    <timestep time="91.50">
        <vehicle id="background.1" x="39.33" y="-1.60" angle="90.00" type="human" speed="13.68" pos="39.33" lane="e0_0" slope="0.00"/>
        <vehicle id="ego" x="5.10" y="-1.60" angle="90.00" type="ego_type" speed="0.00" pos="5.10" lane="e0_0" slope="0.00"/>
    </timestep>
    <timestep time="92.00">
        <vehicle id="background.1" x="46.15" y="-1.60" angle="90.00" type="human" speed="13.63" pos="46.15" lane="e0_0" slope="0.00"/>
        <vehicle id="ego" x="5.10" y="-1.60" angle="90.00" type="ego_type" speed="0.00" pos="5.10" lane="e0_0" slope="0.00"/>
    </timestep>
    <timestep time="92.50">
        <vehicle id="background.1" x="53.06" y="-1.60" angle="90.00" type="human" speed="13.84" pos="53.06" lane="e0_0" slope="0.00"/>
        <vehicle id="ego" x="5.35" y="-1.60" angle="90.00" type="ego_type" speed="0.50" pos="5.35" lane="e0_0" slope="0.00"/>
    </timestep>
    <timestep time="93.00">
        <vehicle id="background.1" x="59.95" y="-1.60" angle="90.00" type="human" speed="13.77" pos="59.95" lane="e0_0" slope="0.00"/>
        <vehicle id="ego" x="5.60" y="-1.60" angle="90.00" type="ego_type" speed="0.50" pos="5.60" lane="e0_0" slope="0.00"/>
    </timestep>
    <timestep time="93.50">
        <vehicle id="background.1" x="66.73" y="-1.60" angle="90.00" type="human" speed="13.57" pos="66.73" lane="e0_0" slope="0.00"/>
        <vehicle id="ego" x="5.85" y="-1.60" angle="90.00" type="ego_type" speed="0.50" pos="5.85" lane="e0_0" slope="0.00"/>
    </timestep>
    <timestep time="94.00">
        <vehicle id="background.1" x="73.50" y="-1.60" angle="90.00" type="human" speed="13.53" pos="73.50" lane="e0_0" slope="0.00"/>
        <vehicle id="ego" x="6.10" y="-1.60" angle="90.00" type="ego_type" speed="0.50" pos="6.10" lane="e0_0" slope="0.00"/>
    </timestep>
    <timestep time="94.50">
        <vehicle id="background.1" x="80.32" y="-1.60" angle="90.00" type="human" speed="13.65" pos="80.32" lane="e0_0" slope="0.00"/>
        <vehicle id="ego" x="6.35" y="-1.60" angle="90.00" type="ego_type" speed="0.50" pos="6.35" lane="e0_0" slope="0.00"/>
    </timestep>
    <timestep time="95.00">
        <vehicle id="background.1" x="87.08" y="-1.60" angle="90.00" type="human" speed="13.51" pos="87.08" lane="e0_0" slope="0.00"/>
        <vehicle id="ego" x="6.60" y="-1.60" angle="90.00" type="ego_type" speed="0.50" pos="6.60" lane="e0_0" slope="0.00"/>
    </timestep>
    <timestep time="95.50">
        <vehicle id="background.1" x="93.82" y="-1.60" angle="90.00" type="human" speed="13.49" pos="93.82" lane="e0_0" slope="0.00"/>
        <vehicle id="ego" x="7.35" y="-1.60" angle="90.00" type="ego_type" speed="1.50" pos="7.35" lane="e0_0" slope="0.00"/>
    </timestep>
    <timestep time="96.00">
        <vehicle id="background.1" x="100.58" y="-1.60" angle="90.00" type="human" speed="13.52" pos="100.58" lane="e0_0" slope="0.00"/>
        <vehicle id="ego" x="8.35" y="-1.60" angle="90.00" type="ego_type" speed="2.00" pos="8.35" lane="e0_0" slope="0.00"/>
    </timestep>
    <timestep time="96.50">
        <vehicle id="background.1" x="107.35" y="-1.60" angle="90.00" type="human" speed="13.55" pos="107.35" lane="e0_0" slope="0.00"/>
        <vehicle id="ego" x="9.35" y="-1.60" angle="90.00" type="ego_type" speed="2.00" pos="9.35" lane="e0_0" slope="0.00"/>
    </timestep>
    <timestep time="97.00">
        <vehicle id="background.1" x="114.26" y="-1.60" angle="90.00" type="human" speed="13.82" pos="114.26" lane="e0_0" slope="0.00"/>
        <vehicle id="ego" x="10.60" y="-1.60" angle="90.00" type="ego_type" speed="2.50" pos="10.60" lane="e0_0" slope="0.00"/>
    </timestep>
    <timestep time="97.50">
        <vehicle id="background.1" x="121.04" y="-1.60" angle="90.00" type="human" speed="13.57" pos="121.04" lane="e0_0" slope="0.00"/>
        <vehicle id="ego" x="11.85" y="-1.60" angle="90.00" type="ego_type" speed="2.50" pos="11.85" lane="e0_0" slope="0.00"/>
    </timestep>
    <timestep time="98.00">
        <vehicle id="background.1" x="127.92" y="-1.60" angle="90.00" type="human" speed="13.76" pos="127.92" lane="e0_0" slope="0.00"/>
        <vehicle id="ego" x="12.35" y="-1.60" angle="90.00" type="ego_type" speed="1.00" pos="12.35" lane="e0_0" slope="0.00"/>
    </timestep>
    <timestep time="98.50">
        <vehicle id="background.1" x="134.82" y="-1.60" angle="90.00" type="human" speed="13.79" pos="134.82" lane="e0_0" slope="0.00"/>
        <vehicle id="ego" x="12.47" y="-1.60" angle="90.00" type="ego_type" speed="0.25" pos="12.47" lane="e0_0" slope="0.00"/>
    </timestep>
    <timestep time="99.00">
        <vehicle id="background.1" x="141.56" y="-1.60" angle="90.00" type="human" speed="13.48" pos="141.56" lane="e0_0" slope="0.00"/>
        <vehicle id="background.2" x="5.10" y="-1.60" angle="90.00" type="human" speed="0.00" pos="5.10" lane="e0_0" slope="0.00"/>
        <vehicle id="ego" x="12.60" y="-1.60" angle="90.00" type="ego_type" speed="0.25" pos="12.60" lane="e0_0" slope="0.00"/>
    </timestep>
    <timestep time="99.50">
        <vehicle id="background.1" x="148.35" y="-1.60" angle="90.00" type="human" speed="13.58" pos="148.35" lane="e0_0" slope="0.00"/>
        <vehicle id="background.2" x="5.10" y="-1.60" angle="90.00" type="human" speed="0.00" pos="5.10" lane="e0_0" slope="0.00"/>
        <vehicle id="ego" x="12.72" y="-1.60" angle="90.00" type="ego_type" speed="0.25" pos="12.72" lane="e0_0" slope="0.00"/>
    </timestep>
    <timestep time="100.00">
        <vehicle id="background.1" x="155.13" y="-1.60" angle="90.00" type="human" speed="13.56" pos="155.13" lane="e0_0" slope="0.00"/>
        <vehicle id="background.2" x="5.15" y="-1.60" angle="90.00" type="human" speed="0.10" pos="5.15" lane="e0_0" slope="0.00"/>
        <vehicle id="ego" x="12.85" y="-1.60" angle="90.00" type="ego_type" speed="0.25" pos="12.85" lane="e0_0" slope="0.00"/>
    </timestep>
    <timestep time="100.50">
        <vehicle id="background.1" x="161.95" y="-1.60" angle="90.00" type="human" speed="13.65" pos="161.95" lane="e0_0" slope="0.00"/>
        <vehicle id="background.2" x="5.24" y="-1.60" angle="90.00" type="human" speed="0.19" pos="5.24" lane="e0_0" slope="0.00"/>
        <vehicle id="ego" x="12.85" y="-1.60" angle="90.00" type="ego_type" speed="0.00" pos="12.85" lane="e0_0" slope="0.00"/>
    </timestep>
    <timestep time="101.00">
        <vehicle id="background.1" x="168.67" y="-1.60" angle="90.00" type="human" speed="13.44" pos="168.67" lane="e0_0" slope="0.00"/>
        <vehicle id="background.2" x="5.29" y="-1.60" angle="90.00" type="human" speed="0.09" pos="5.29" lane="e0_0" slope="0.00"/>
        <vehicle id="ego" x="12.85" y="-1.60" angle="90.00" type="ego_type" speed="0.00" pos="12.85" lane="e0_0" slope="0.00"/>
    </timestep>
    <timestep time="101.50">
        <vehicle id="background.1" x="175.38" y="-1.60" angle="90.00" type="human" speed="13.42" pos="175.38" lane="e0_0" slope="0.00"/>
        <vehicle id="background.2" x="5.32" y="-1.60" angle="90.00" type="human" speed="0.06" pos="5.32" lane="e0_0" slope="0.00"/>
        <vehicle id="ego" x="12.85" y="-1.60" angle="90.00" type="ego_type" speed="0.00" pos="12.85" lane="e0_0" slope="0.00"/>
    </timestep>
    <timestep time="102.00">
        <vehicle id="background.1" x="182.09" y="-1.60" angle="90.00" type="human" speed="13.42" pos="182.09" lane="e0_0" slope="0.00"/>
        <vehicle id="background.2" x="5.33" y="-1.60" angle="90.00" type="human" speed="0.03" pos="5.33" lane="e0_0" slope="0.00"/>
        <vehicle id="ego" x="12.85" y="-1.60" angle="90.00" type="ego_type" speed="0.00" pos="12.85" lane="e0_0" slope="0.00"/>
    </timestep>
    <timestep time="102.50">
        <vehicle id="background.1" x="189.03" y="-1.60" angle="90.00" type="human" speed="13.89" pos="189.03" lane="e0_0" slope="0.00"/>
        <vehicle id="background.2" x="5.34" y="-1.60" angle="90.00" type="human" speed="0.02" pos="5.34" lane="e0_0" slope="0.00"/>
        <vehicle id="ego" x="12.85" y="-1.60" angle="90.00" type="ego_type" speed="0.00" pos="12.85" lane="e0_0" slope="0.00"/>
    </timestep>
    <timestep time="103.00">
        <vehicle id="background.1" x="195.91" y="-1.60" angle="90.00" type="human" speed="13.75" pos="195.91" lane="e0_0" slope="0.00"/>
        <vehicle id="background.2" x="5.34" y="-1.60" angle="90.00" type="human" speed="0.01" pos="5.34" lane="e0_0" slope="0.00"/>
        <vehicle id="ego" x="12.85" y="-1.60" angle="90.00" type="ego_type" speed="0.00" pos="12.85" lane="e0_0" slope="0.00"/>
    </timestep>
    <timestep time="103.50">
        <vehicle id="background.1" x="202.63" y="-1.60" angle="90.00" type="human" speed="13.44" pos="202.63" lane="e0_0" slope="0.00"/>
        <vehicle id="background.2" x="5.35" y="-1.60" angle="90.00" type="human" speed="0.00" pos="5.35" lane="e0_0" slope="0.00"/>
        <vehicle id="ego" x="12.85" y="-1.60" angle="90.00" type="ego_type" speed="0.00" pos="12.85" lane="e0_0" slope="0.00"/>
    </timestep>
    <timestep time="104.00">
        <vehicle id="background.1" x="209.56" y="-1.60" angle="90.00" type="human" speed="13.86" pos="209.56" lane="e0_0" slope="0.00"/>
        <vehicle id="background.2" x="5.35" y="-1.60" angle="90.00" type="human" speed="0.00" pos="5.35" lane="e0_0" slope="0.00"/>
        <vehicle id="ego" x="12.85" y="-1.60" angle="90.00" type="ego_type" speed="0.00" pos="12.85" lane="e0_0" slope="0.00"/>
    </timestep>
    <timestep time="104.50">
        <vehicle id="background.1" x="216.34" y="-1.60" angle="90.00" type="human" speed="13.56" pos="216.34" lane="e0_0" slope="0.00"/>
        <vehicle id="background.2" x="5.35" y="-1.60" angle="90.00" type="human" speed="0.00" pos="5.35" lane="e0_0" slope="0.00"/>
        <vehicle id="ego" x="12.85" y="-1.60" angle="90.00" type="ego_type" speed="0.00" pos="12.85" lane="e0_0" slope="0.00"/>
    </timestep>
    <timestep time="105.00">
        <vehicle id="background.1" x="223.06" y="-1.60" angle="90.00" type="human" speed="13.44" pos="223.06" lane="e0_0" slope="0.00"/>
        <vehicle id="background.2" x="5.35" y="-1.60" angle="90.00" type="human" speed="0.00" pos="5.35" lane="e0_0" slope="0.00"/>
        <vehicle id="ego" x="12.85" y="-1.60" angle="90.00" type="ego_type" speed="0.00" pos="12.85" lane="e0_0" slope="0.00"/>
    </timestep>
    <timestep time="105.50">
        <vehicle id="background.1" x="229.93" y="-1.60" angle="90.00" type="human" speed="13.75" pos="229.93" lane="e0_0" slope="0.00"/>
        <vehicle id="background.2" x="5.35" y="-1.60" angle="90.00" type="human" speed="0.00" pos="5.35" lane="e0_0" slope="0.00"/>
        <vehicle id="ego" x="12.85" y="-1.60" angle="90.00" type="ego_type" speed="0.00" pos="12.85" lane="e0_0" slope="0.00"/>
    </timestep>
    <timestep time="106.00">
        <vehicle id="background.1" x="236.76" y="-1.60" angle="90.00" type="human" speed="13.66" pos="236.76" lane="e0_0" slope="0.00"/>
        <vehicle id="background.2" x="5.35" y="-1.60" angle="90.00" type="human" speed="0.00" pos="5.35" lane="e0_0" slope="0.00"/>
        <vehicle id="ego" x="12.85" y="-1.60" angle="90.00" type="ego_type" speed="0.00" pos="12.85" lane="e0_0" slope="0.00"/>
    </timestep>
    <timestep time="106.50">
        <vehicle id="background.1" x="243.62" y="-1.60" angle="90.00" type="human" speed="13.72" pos="243.62" lane="e0_0" slope="0.00"/>
        <vehicle id="background.2" x="5.35" y="-1.60" angle="90.00" type="human" speed="0.00" pos="5.35" lane="e0_0" slope="0.00"/>
        <vehicle id="ego" x="12.85" y="-1.60" angle="90.00" type="ego_type" speed="0.00" pos="12.85" lane="e0_0" slope="0.00"/>
    </timestep>
    <timestep time="107.00">
        <vehicle id="background.1" x="250.37" y="-1.60" angle="90.00" type="human" speed="13.49" pos="250.37" lane="e0_0" slope="0.00"/>
        <vehicle id="background.2" x="5.35" y="-1.60" angle="90.00" type="human" speed="0.00" pos="5.35" lane="e0_0" slope="0.00"/>
        <vehicle id="ego" x="12.85" y="-1.60" angle="90.00" type="ego_type" speed="0.00" pos="12.85" lane="e0_0" slope="0.00"/>
    </timestep>
    <timestep time="107.50">
        <vehicle id="background.1" x="257.08" y="-1.60" angle="90.00" type="human" speed="13.43" pos="257.08" lane="e0_0" slope="0.00"/>
        <vehicle id="background.2" x="5.35" y="-1.60" angle="90.00" type="human" speed="0.00" pos="5.35" lane="e0_0" slope="0.00"/>
        <vehicle id="ego" x="12.85" y="-1.60" angle="90.00" type="ego_type" speed="0.00" pos="12.85" lane="e0_0" slope="0.00"/>
    </timestep>
    <timestep time="108.00">
        <vehicle id="background.1" x="263.87" y="-1.60" angle="90.00" type="human" speed="13.58" pos="263.87" lane="e0_0" slope="0.00"/>
        <vehicle id="background.2" x="5.35" y="-1.60" angle="90.00" type="human" speed="0.00" pos="5.35" lane="e0_0" slope="0.00"/>
        <vehicle id="ego" x="12.85" y="-1.60" angle="90.00" type="ego_type" speed="0.00" pos="12.85" lane="e0_0" slope="0.00"/>
    </timestep>
    <timestep time="108.50">
        <vehicle id="background.1" x="270.71" y="-1.60" angle="90.00" type="human" speed="13.67" pos="270.71" lane="e0_0" slope="0.00"/>
        <vehicle id="background.2" x="5.35" y="-1.60" angle="90.00" type="human" speed="0.00" pos="5.35" lane="e0_0" slope="0.00"/>
        <vehicle id="ego" x="12.85" y="-1.60" angle="90.00" type="ego_type" speed="0.00" pos="12.85" lane="e0_0" slope="0.00"/>
    </timestep>
    <timestep time="109.00">
        <vehicle id="background.1" x="277.61" y="-1.60" angle="90.00" type="human" speed="13.80" pos="277.61" lane="e0_0" slope="0.00"/>
        <vehicle id="background.2" x="5.35" y="-1.60" angle="90.00" type="human" speed="0.00" pos="5.35" lane="e0_0" slope="0.00"/>