<?xml version="1.0" encoding="UTF-8"?>

<!-- generated on 2026-05-13 21:30:19 by Eclipse SUMO sumo Version 1.24.0
<sumoConfiguration xmlns:xsi="http://www.w3.org/2001/XMLSchema-instance" xsi:noNamespaceSchemaLocation="http://sumo.dlr.de/xsd/sumoConfiguration.xsd">

    <input>
        <net-file value="scenarios/simple_arterial/simple_arterial.net.xml"/>
        <route-files value="scenarios/simple_arterial/simple_arterial.rou.xml"/>
        <additional-files value="scenarios/simple_arterial/simple_arterial.tls.xml"/>
    </input>

    <output>
        <fcd-output value="runs/fcd_rlhf/episode_00000_seed_200.fcd.xml"/>
    </output>

    <time>
        <begin value="0"/>
        <end value="900"/>
        <step-length value="0.5"/>
    </time>

    <report>
        <no-warnings value="true"/>
    </report>

    <traci_server>
        <remote-port value="22810"/>
    </traci_server>

    <random_number>
        <seed value="200"/>
    </random_number>

</sumoConfiguration>
-->

<fcd-export xmlns:xsi="http://www.w3.org/2001/XMLSchema-instance" xsi:noNamespaceSchemaLocation="http://sumo.dlr.de/xsd/fcd_file.xsd">
    <timestep time="0.00"/>
    <timestep time="0.50"/>
    <timestep time="1.00"/>
    <timestep time="1.50"/>
    <timestep time="2.00"/>
    <timestep time="2.50"/>
    <timestep time="3.00"/>
    <timestep time="3.50"/>
    <timestep time="4.00"/>
    <timestep time="4.50"/>
    <timestep time="5.00">
        <vehicle id="background.0" x="5.10" y="-1.60" angle="90.00" type="human" speed="13.89" pos="5.10" lane="e0_0" slope="0.00"/>
    </timestep>
    <timestep time="5.50">
        <vehicle id="background.0" x="12.02" y="-1.60" angle="90.00" type="human" speed="13.83" pos="12.02" lane="e0_0" slope="0.00"/>
    </timestep>
    <timestep time="6.00">
        <vehicle id="background.0" x="18.83" y="-1.60" angle="90.00" type="human" speed="13.63" pos="18.83" lane="e0_0" slope="0.00"/>
    </timestep>
    <timestep time="6.50">
        <vehicle id="background.0" x="25.59" y="-1.60" angle="90.00" type="human" speed="13.52" pos="25.59" lane="e0_0" slope="0.00"/>
    </timestep>
    <timestep time="7.00">
        <vehicle id="background.0" x="32.32" y="-1.60" angle="90.00" type="human" speed="13.47" pos="32.32" lane="e0_0" slope="0.00"/>
    </timestep>
    <timestep time="7.50">
        <vehicle id="background.0" x="39.11" y="-1.60" angle="90.00" type="human" speed="13.58" pos="39.11" lane="e0_0" slope="0.00"/>
    </timestep>
    <timestep time="8.00">
        <vehicle id="background.0" x="45.88" y="-1.60" angle="90.00" type="human" speed="13.54" pos="45.88" lane="e0_0" slope="0.00"/>
    </timestep>
    <timestep time="8.50">
        <vehicle id="background.0" x="52.62" y="-1.60" angle="90.00" type="human" speed="13.49" pos="52.62" lane="e0_0" slope="0.00"/>
    </timestep>
    <timestep time="9.00">
        <vehicle id="background.0" x="59.51" y="-1.60" angle="90.00" type="human" speed="13.77" pos="59.51" lane="e0_0" slope="0.00"/>
    </timestep>
    <timestep time="9.50">
        <vehicle id="background.0" x="66.28" y="-1.60" angle="90.00" type="human" speed="13.53" pos="66.28" lane="e0_0" slope="0.00"/>
    </timestep>
    <timestep time="10.00">
        <vehicle id="background.0" x="73.01" y="-1.60" angle="90.00" type="human" speed="13.47" pos="73.01" lane="e0_0" slope="0.00"/>
    </timestep>
    <timestep time="10.50">
        <vehicle id="background.0" x="79.92" y="-1.60" angle="90.00" type="human" speed="13.82" pos="79.92" lane="e0_0" slope="0.00"/>
    </timestep>
    <timestep time="11.00">
        <vehicle id="background.0" x="86.63" y="-1.60" angle="90.00" type="human" speed="13.42" pos="86.63" lane="e0_0" slope="0.00"/>
    </timestep>
    <timestep time="11.50">
        <vehicle id="background.0" x="93.51" y="-1.60" angle="90.00" type="human" speed="13.76" pos="93.51" lane="e0_0" slope="0.00"/>
    </timestep>
    <timestep time="12.00">
        <vehicle id="background.0" x="100.45" y="-1.60" angle="90.00" type="human" speed="13.88" pos="100.45" lane="e0_0" slope="0.00"/>
    </timestep>
    <timestep time="12.50">
        <vehicle id="background.0" x="107.36" y="-1.60" angle="90.00" type="human" speed="13.82" pos="107.36" lane="e0_0" slope="0.00"/>
    </timestep>
    <timestep time="13.00">
        <vehicle id="background.0" x="114.23" y="-1.60" angle="90.00" type="human" speed="13.74" pos="114.23" lane="e0_0" slope="0.00"/>
    </timestep>
    <timestep time="13.50">
        <vehicle id="background.0" x="121.11" y="-1.60" angle="90.00" type="human" speed="13.78" pos="121.11" lane="e0_0" slope="0.00"/>
    </timestep>
    <timestep time="14.00">
        <vehicle id="background.0" x="127.88" y="-1.60" angle="90.00" type="human" speed="13.53" pos="127.88" lane="e0_0" slope="0.00"/>
    </timestep>
    <timestep time="14.50">
        <vehicle id="background.0" x="134.77" y="-1.60" angle="90.00" type="human" speed="13.77" pos="134.77" lane="e0_0" slope="0.00"/>
    </timestep>
    <timestep time="15.00">
        <vehicle id="background.0" x="141.49" y="-1.60" angle="90.00" type="human" speed="13.46" pos="141.49" lane="e0_0" slope="0.00"/>
    </timestep>
    <timestep time="15.50">
        <vehicle id="background.0" x="148.27" y="-1.60" angle="90.00" type="human" speed="13.54" pos="148.27" lane="e0_0" slope="0.00"/>
    </timestep>
    <timestep time="16.00">
        <vehicle id="background.0" x="154.97" y="-1.60" angle="90.00" type="human" speed="13.42" pos="154.97" lane="e0_0" slope="0.00"/>
    </timestep>
    <timestep time="16.50">
        <vehicle id="background.0" x="161.88" y="-1.60" angle="90.00" type="human" speed="13.82" pos="161.88" lane="e0_0" slope="0.00"/>
    </timestep>
    <timestep time="17.00">
        <vehicle id="background.0" x="168.80" y="-1.60" angle="90.00" type="human" speed="13.83" pos="168.80" lane="e0_0" slope="0.00"/>
    </timestep>
    <timestep time="17.50">
        <vehicle id="background.0" x="175.63" y="-1.60" angle="90.00" type="human" speed="13.67" pos="175.63" lane="e0_0" slope="0.00"/>
    </timestep>
    <timestep time="18.00">
        <vehicle id="background.0" x="182.41" y="-1.60" angle="90.00" type="human" speed="13.57" pos="182.41" lane="e0_0" slope="0.00"/>
    </timestep>
    <timestep time="18.50">
        <vehicle id="background.0" x="189.18" y="-1.60" angle="90.00" type="human" speed="13.54" pos="189.18" lane="e0_0" slope="0.00"/>
    </timestep>
    <timestep time="19.00">
        <vehicle id="background.0" x="196.10" y="-1.60" angle="90.00" type="human" speed="13.84" pos="196.10" lane="e0_0" slope="0.00"/>
    </timestep>
    <timestep time="19.50">
        <vehicle id="background.0" x="203.02" y="-1.60" angle="90.00" type="human" speed="13.84" pos="203.02" lane="e0_0" slope="0.00"/>
    </timestep>
    <timestep time="20.00">
        <vehicle id="background.0" x="209.87" y="-1.60" angle="90.00" type="human" speed="13.69" pos="209.87" lane="e0_0" slope="0.00"/>
    </timestep>
    <timestep time="20.50">
        <vehicle id="background.0" x="216.59" y="-1.60" angle="90.00" type="human" speed="13.45" pos="216.59" lane="e0_0" slope="0.00"/>
    </timestep>
    <timestep time="21.00">
        <vehicle id="background.0" x="223.41" y="-1.60" angle="90.00" type="human" speed="13.64" pos="223.41" lane="e0_0" slope="0.00"/>
    </timestep>
    <timestep time="21.50">
        <vehicle id="background.0" x="230.14" y="-1.60" angle="90.00" type="human" speed="13.46" pos="230.14" lane="e0_0" slope="0.00"/>
    </timestep>
    <timestep time="22.00">
        <vehicle id="background.0" x="237.06" y="-1.60" angle="90.00" type="human" speed="13.84" pos="237.06" lane="e0_0" slope="0.00"/>
    </timestep>
    <timestep time="22.50">
        <vehicle id="background.0" x="243.79" y="-1.60" angle="90.00" type="human" speed="13.47" pos="243.79" lane="e0_0" slope="0.00"/>
    </timestep>
    <timestep time="23.00">
        <vehicle id="background.0" x="250.60" y="-1.60" angle="90.00" type="human" speed="13.61" pos="250.60" lane="e0_0" slope="0.00"/>
    </timestep>
    <timestep time="23.50">
        <vehicle id="background.0" x="257.47" y="-1.60" angle="90.00" type="human" speed="13.75" pos="257.47" lane="e0_0" slope="0.00"/>
    </timestep>
    <timestep time="24.00">
        <vehicle id="background.0" x="264.22" y="-1.60" angle="90.00" type="human" speed="13.49" pos="264.22" lane="e0_0" slope="0.00"/>
    </timestep>
    <timestep time="24.50">
        <vehicle id="background.0" x="270.97" y="-1.60" angle="90.00" type="human" speed="13.50" pos="270.97" lane="e0_0" slope="0.00"/>
    </timestep>
    <timestep time="25.00">
        <vehicle id="background.0" x="277.81" y="-1.60" angle="90.00" type="human" speed="13.68" pos="277.81" lane="e0_0" slope="0.00"/>
    </timestep>
    <timestep time="25.50">
        <vehicle id="background.0" x="284.58" y="-1.60" angle="90.00" type="human" speed="13.54" pos="284.58" lane="e0_0" slope="0.00"/>
    </timestep>
    <timestep time="26.00">
        <vehicle id="background.0" x="291.47" y="-1.60" angle="90.00" type="human" speed="13.78" pos="291.47" lane="e0_0" slope="0.00"/>
    </timestep>
    <timestep time="26.50">
        <vehicle id="background.0" x="298.29" y="-1.60" angle="90.00" type="human" speed="13.64" pos="298.29" lane="e0_0" slope="0.00"/>
    </timestep>
    <timestep time="27.00">
        <vehicle id="background.0" x="304.94" y="-1.60" angle="90.00" type="human" speed="13.50" pos="4.94" lane="e1_0" slope="0.00"/>
    </timestep>
    <timestep time="27.50">
        <vehicle id="background.0" x="311.83" y="-1.60" angle="90.00" type="human" speed="13.78" pos="11.83" lane="e1_0" slope="0.00"/>
    </timestep>
    <timestep time="28.00">
        <vehicle id="background.0" x="318.75" y="-1.60" angle="90.00" type="human" speed="13.85" pos="18.75" lane="e1_0" slope="0.00"/>
    </timestep>
    <timestep time="28.50">
        <vehicle id="background.0" x="325.63" y="-1.60" angle="90.00" type="human" speed="13.76" pos="25.63" lane="e1_0" slope="0.00"/>
    </timestep>
    <timestep time="29.00">
        <vehicle id="background.0" x="332.40" y="-1.60" angle="90.00" type="human" speed="13.54" pos="32.40" lane="e1_0" slope="0.00"/>
    </timestep>
    <timestep time="29.50">
        <vehicle id="background.0" x="339.10" y="-1.60" angle="90.00" type="human" speed="13.40" pos="39.10" lane="e1_0" slope="0.00"/>
    </timestep>
    <timestep time="30.00">
        <vehicle id="background.0" x="345.96" y="-1.60" angle="90.00" type="human" speed="13.71" pos="45.96" lane="e1_0" slope="0.00"/>
    </timestep>
    <timestep time="30.50"/>
    <timestep time="31.00"/>
    <timestep time="31.50"/>
    <timestep time="32.00"/>
    <timestep time="32.50"/>
    <timestep time="33.00"/>
    <timestep time="33.50"/>
    <timestep time="34.00">
        <vehicle id="background.1" x="5.10" y="-1.60" angle="90.00" type="human" speed="13.31" pos="5.10" lane="e0_0" slope="0.00"/>
    </timestep>
    <timestep time="34.50">
        <vehicle id="background.1" x="11.55" y="-1.60" angle="90.00" type="human" speed="12.89" pos="11.55" lane="e0_0" slope="0.00"/>
    </timestep>
    <timestep time="35.00">
        <vehicle id="background.1" x="18.01" y="-1.60" angle="90.00" type="human" speed="12.93" pos="18.01" lane="e0_0" slope="0.00"/>
    </timestep>
    <timestep time="35.50">
        <vehicle id="background.1" x="24.57" y="-1.60" angle="90.00" type="human" speed="13.11" pos="24.57" lane="e0_0" slope="0.00"/>
    </timestep>
    <timestep time="36.00">
        <vehicle id="background.1" x="31.02" y="-1.60" angle="90.00" type="human" speed="12.91" pos="31.02" lane="e0_0" slope="0.00"/>
    </timestep>
    <timestep time="36.50">
        <vehicle id="background.1" x="37.63" y="-1.60" angle="90.00" type="human" speed="13.22" pos="37.63" lane="e0_0" slope="0.00"/>
    </timestep>
    <timestep time="37.00">
        <vehicle id="background.1" x="44.07" y="-1.60" angle="90.00" type="human" speed="12.88" pos="44.07" lane="e0_0" slope="0.00"/>
    </timestep>
    <timestep time="37.50">
        <vehicle id="background.1" x="50.63" y="-1.60" angle="90.00" type="human" speed="13.13" pos="50.63" lane="e0_0" slope="0.00"/>
    </timestep>
    <timestep time="38.00">
        <vehicle id="background.1" x="57.12" y="-1.60" angle="90.00" type="human" speed="12.97" pos="57.12" lane="e0_0" slope="0.00"/>
    </timestep>
    <timestep time="38.50">
        <vehicle id="background.1" x="63.52" y="-1.60" angle="90.00" type="human" speed="12.81" pos="63.52" lane="e0_0" slope="0.00"/>
    </timestep>
    <timestep time="39.00">
        <vehicle id="background.1" x="70.05" y="-1.60" angle="90.00" type="human" speed="13.06" pos="70.05" lane="e0_0" slope="0.00"/>
    </timestep>
    <timestep time="39.50">
        <vehicle id="background.1" x="76.62" y="-1.60" angle="90.00" type="human" speed="13.14" pos="76.62" lane="e0_0" slope="0.00"/>
    </timestep>
    <timestep time="40.00">
        <vehicle id="background.1" x="83.19" y="-1.60" angle="90.00" type="human" speed="13.14" pos="83.19" lane="e0_0" slope="0.00"/>
    </timestep>
    <timestep time="40.50">
        <vehicle id="background.1" x="89.72" y="-1.60" angle="90.00" type="human" speed="13.06" pos="89.72" lane="e0_0" slope="0.00"/>
    </timestep>
    <timestep time="41.00">
        <vehicle id="background.1" x="96.24" y="-1.60" angle="90.00" type="human" speed="13.03" pos="96.24" lane="e0_0" slope="0.00"/>
    </timestep>
    <timestep time="41.50">
        <vehicle id="background.1" x="102.76" y="-1.60" angle="90.00" type="human" speed="13.04" pos="102.76" lane="e0_0" slope="0.00"/>
    </timestep>
    <timestep time="42.00">
        <vehicle id="background.1" x="109.18" y="-1.60" angle="90.00" type="human" speed="12.84" pos="109.18" lane="e0_0" slope="0.00"/>
    </timestep>
    <timestep time="42.50">
        <vehicle id="background.1" x="115.77" y="-1.60" angle="90.00" type="human" speed="13.18" pos="115.77" lane="e0_0" slope="0.00"/>
    </timestep>
    <timestep time="43.00">
        <vehicle id="background.1" x="122.35" y="-1.60" angle="90.00" type="human" speed="13.16" pos="122.35" lane="e0_0" slope="0.00"/>
    </timestep>
    <timestep time="43.50">
        <vehicle id="background.1" x="128.80" y="-1.60" angle="90.00" type="human" speed="12.90" pos="128.80" lane="e0_0" slope="0.00"/>
    </timestep>
    <timestep time="44.00">
        <vehicle id="background.1" x="135.36" y="-1.60" angle="90.00" type="human" speed="13.12" pos="135.36" lane="e0_0" slope="0.00"/>
    </timestep>
    <timestep time="44.50">
        <vehicle id="background.1" x="141.97" y="-1.60" angle="90.00" type="human" speed="13.21" pos="141.97" lane="e0_0" slope="0.00"/>
    </timestep>
    <timestep time="45.00">
        <vehicle id="background.1" x="148.54" y="-1.60" angle="90.00" type="human" speed="13.14" pos="148.54" lane="e0_0" slope="0.00"/>
    </timestep>
    <timestep time="45.50">
        <vehicle id="background.1" x="155.17" y="-1.60" angle="90.00" type="human" speed="13.27" pos="155.17" lane="e0_0" slope="0.00"/>
    </timestep>
    <timestep time="46.00">
        <vehicle id="background.1" x="161.66" y="-1.60" angle="90.00" type="human" speed="12.97" pos="161.66" lane="e0_0" slope="0.00"/>
    </timestep>
    <timestep time="46.50">
        <vehicle id="background.1" x="168.29" y="-1.60" angle="90.00" type="human" speed="13.26" pos="168.29" lane="e0_0" slope="0.00"/>
    </timestep>
    <timestep time="47.00">
        <vehicle id="background.1" x="174.80" y="-1.60" angle="90.00" type="human" speed="13.03" pos="174.80" lane="e0_0" slope="0.00"/>
    </timestep>
    <timestep time="47.50">
        <vehicle id="background.1" x="181.37" y="-1.60" angle="90.00" type="human" speed="13.13" pos="181.37" lane="e0_0" slope="0.00"/>
    </timestep>
    <timestep time="48.00">
        <vehicle id="background.1" x="187.83" y="-1.60" angle="90.00" type="human" speed="12.93" pos="187.83" lane="e0_0" slope="0.00"/>
    </timestep>
    <timestep time="48.50">
        <vehicle id="background.1" x="194.29" y="-1.60" angle="90.00" type="human" speed="12.92" pos="194.29" lane="e0_0" slope="0.00"/>
    </timestep>
    <timestep time="49.00">
        <vehicle id="background.1" x="200.90" y="-1.60" angle="90.00" type="human" speed="13.23" pos="200.90" lane="e0_0" slope="0.00"/>
    </timestep>
    <timestep time="49.50">
        <vehicle id="background.1" x="207.39" y="-1.60" angle="90.00" type="human" speed="12.97" pos="207.39" lane="e0_0" slope="0.00"/>
    </timestep>
    <timestep time="50.00">
        <vehicle id="background.1" x="213.81" y="-1.60" angle="90.00" type="human" speed="12.84" pos="213.81" lane="e0_0" slope="0.00"/>
    </timestep>
    <timestep time="50.50">
        <vehicle id="background.1" x="220.45" y="-1.60" angle="90.00" type="human" speed="13.29" pos="220.45" lane="e0_0" slope="0.00"/>
    </timestep>
    <timestep time="51.00">
        <vehicle id="background.1" x="226.96" y="-1.60" angle="90.00" type="human" speed="13.01" pos="226.96" lane="e0_0" slope="0.00"/>
    </timestep>
    <timestep time="51.50">
        <vehicle id="background.1" x="233.54" y="-1.60" angle="90.00" type="human" speed="13.16" pos="233.54" lane="e0_0" slope="0.00"/>
    </timestep>
    <timestep time="52.00">
        <vehicle id="background.1" x="240.06" y="-1.60" angle="90.00" type="human" speed="13.04" pos="240.06" lane="e0_0" slope="0.00"/>
        <vehicle id="background.2" x="5.10" y="-1.60" angle="90.00" type="human" speed="13.89" pos="5.10" lane="e0_0" slope="0.00"/>
    </timestep>
    <timestep time="52.50">
        <vehicle id="background.1" x="246.64" y="-1.60" angle="90.00" type="human" speed="13.16" pos="246.64" lane="e0_0" slope="0.00"/>
        <vehicle id="background.2" x="11.87" y="-1.60" angle="90.00" type="human" speed="13.54" pos="11.87" lane="e0_0" slope="0.00"/>
    </timestep>
    <timestep time="53.00">
        <vehicle id="background.1" x="253.04" y="-1.60" angle="90.00" type="human" speed="12.82" pos="253.04" lane="e0_0" slope="0.00"/>
        <vehicle id="background.2" x="18.62" y="-1.60" angle="90.00" type="human" speed="13.50" pos="18.62" lane="e0_0" slope="0.00"/>
    </timestep>
    <timestep time="53.50">
        <vehicle id="background.1" x="259.66" y="-1.60" angle="90.00" type="human" speed="13.23" pos="259.66" lane="e0_0" slope="0.00"/>
        <vehicle id="background.2" x="25.47" y="-1.60" angle="90.00" type="human" speed="13.71" pos="25.47" lane="e0_0" slope="0.00"/>
    </timestep>
    <timestep time="54.00">
        <vehicle id="background.1" x="266.07" y="-1.60" angle="90.00" type="human" speed="12.83" pos="266.07" lane="e0_0" slope="0.00"/>
        <vehicle id="background.2" x="32.18" y="-1.60" angle="90.00" type="human" speed="13.40" pos="32.18" lane="e0_0" slope="0.00"/>
    </timestep>
    <timestep time="54.50">
        <vehicle id="background.1" x="272.55" y="-1.60" angle="90.00" type="human" speed="12.96" pos="272.55" lane="e0_0" slope="0.00"/>
        <vehicle id="background.2" x="39.09" y="-1.60" angle="90.00" type="human" speed="13.82" pos="39.09" lane="e0_0" slope="0.00"/>
    </timestep>
    <timestep time="55.00">
        <vehicle id="background.1" x="279.03" y="-1.60" angle="90.00" type="human" speed="12.96" pos="279.03" lane="e0_0" slope="0.00"/>
        <vehicle id="background.2" x="45.83" y="-1.60" angle="90.00" type="human" speed="13.49" pos="45.83" lane="e0_0" slope="0.00"/>
    </timestep>
    <timestep time="55.50">
        <vehicle id="background.1" x="284.95" y="-1.60" angle="90.00" type="human" speed="11.83" pos="284.95" lane="e0_0" slope="0.00"/>
        <vehicle id="background.2" x="52.63" y="-1.60" angle="90.00" type="human" speed="13.59" pos="52.63" lane="e0_0" slope="0.00"/>
    </timestep>
    <timestep time="56.00">
        <vehicle id="background.1" x="289.93" y="-1.60" angle="90.00" type="human" speed="9.96" pos="289.93" lane="e0_0" slope="0.00"/>
        <vehicle id="background.2" x="59.42" y="-1.60" angle="90.00" type="human" speed="13.59" pos="59.42" lane="e0_0" slope="0.00"/>
    </timestep>
    <timestep time="56.50">
        <vehicle id="background.1" x="293.81" y="-1.60" angle="90.00" type="human" speed="7.76" pos="293.81" lane="e0_0" slope="0.00"/>
        <vehicle id="background.2" x="66.32" y="-1.60" angle="90.00" type="human" speed="13.80" pos="66.32" lane="e0_0" slope="0.00"/>
        <vehicle id="background.3" x="5.10" y="-1.60" angle="90.00" type="human" speed="11.46" pos="5.10" lane="e0_0" slope="0.00"/>
    </timestep>
    <timestep time="57.00">
        <vehicle id="background.1" x="296.56" y="-1.60" angle="90.00" type="human" speed="5.51" pos="296.56" lane="e0_0" slope="0.00"/>
        <vehicle id="background.2" x="73.07" y="-1.60" angle="90.00" type="human" speed="13.50" pos="73.07" lane="e0_0" slope="0.00"/>
        <vehicle id="background.3" x="10.81" y="-1.60" angle="90.00" type="human" speed="11.41" pos="10.81" lane="e0_0" slope="0.00"/>
    </timestep>
    <timestep time="57.50">
        <vehicle id="background.1" x="298.19" y="-1.60" angle="90.00" type="human" speed="3.26" pos="298.19" lane="e0_0" slope="0.00"/>
        <vehicle id="background.2" x="79.84" y="-1.60" angle="90.00" type="human" speed="13.54" pos="79.84" lane="e0_0" slope="0.00"/>
        <vehicle id="background.3" x="16.46" y="-1.60" angle="90.00" type="human" speed="11.31" pos="16.46" lane="e0_0" slope="0.00"/>
    </timestep>
    <timestep time="58.00">
        <vehicle id="background.1" x="298.81" y="-1.60" angle="90.00" type="human" speed="1.22" pos="298.81" lane="e0_0" slope="0.00"/>
        <vehicle id="background.2" x="86.58" y="-1.60" angle="90.00" type="human" speed="13.47" pos="86.58" lane="e0_0" slope="0.00"/>
        <vehicle id="background.3" x="22.01" y="-1.60" angle="90.00" type="human" speed="11.10" pos="22.01" lane="e0_0" slope="0.00"/>
        <vehicle id="background.4" x="5.10" y="-1.60" angle="90.00" type="human" speed="10.54" pos="5.10" lane="e0_0" slope="0.00"/>
    </timestep>
    <timestep time="58.50">
        <vehicle id="background.1" x="298.96" y="-1.60" angle="90.00" type="human" speed="0.31" pos="298.96" lane="e0_0" slope="0.00"/>
        <vehicle id="background.2" x="93.50" y="-1.60" angle="90.00" type="human" speed="13.85" pos="93.50" lane="e0_0" slope="0.00"/>
        <vehicle id="background.3" x="27.62" y="-1.60" angle="90.00" type="human" speed="11.22" pos="27.62" lane="e0_0" slope="0.00"/>
        <vehicle id="background.4" x="10.14" y="-1.60" angle="90.00" type="human" speed="10.08" pos="10.14" lane="e0_0" slope="0.00"/>
    </timestep>
    <timestep time="59.00">
        <vehicle id="background.1" x="298.99" y="-1.60" angle="90.00" type="human" speed="0.07" pos="298.99" lane="e0_0" slope="0.00"/>
        <vehicle id="background.2" x="100.40" y="-1.60" angle="90.00" type="human" speed="13.79" pos="100.40" lane="e0_0" slope="0.00"/>
        <vehicle id="background.3" x="33.11" y="-1.60" angle="90.00" type="human" speed="10.99" pos="33.11" lane="e0_0" slope="0.00"/>
        <vehicle id="background.4" x="15.47" y="-1.60" angle="90.00" type="human" speed="10.66" pos="15.47" lane="e0_0" slope="0.00"/>
        <vehicle id="ego" x="5.10" y="-1.60" angle="90.00" type="ego_type" speed="0.00" pos="5.10" lane="e0_0" slope="0.00"/>
    </timestep>
    <timestep time="59.50">
        <vehicle id="background.1" x="299.00" y="-1.60" angle="90.00" type="human" speed="0.01" pos="299.00" lane="e0_0" slope="0.00"/>
        <vehicle id="background.2" x="107.17" y="-1.60" angle="90.00" type="human" speed="13.56" pos="107.17" lane="e0_0" slope="0.00"/>
        <vehicle id="background.3" x="38.77" y="-1.60" angle="90.00" type="human" speed="11.30" pos="38.77" lane="e0_0" slope="0.00"/>
        <vehicle id="background.4" x="20.64" y="-1.60" angle="90.00" type="human" speed="10.34" pos="20.64" lane="e0_0" slope="0.00"/>
        <vehicle id="ego" x="5.10" y="-1.60" angle="90.00" type="ego_type" speed="0.00" pos="5.10" lane="e0_0" slope="0.00"/>
    </timestep>
    <timestep time="60.00">
        <vehicle id="background.1" x="299.00" y="-1.60" angle="90.00" type="human" speed="0.00" pos="299.00" lane="e0_0" slope="0.00"/>
        <vehicle id="background.2" x="114.06" y="-1.60" angle="90.00" type="human" speed="13.77" pos="114.06" lane="e0_0" slope="0.00"/>
        <vehicle id="background.3" x="44.31" y="-1.60" angle="90.00" type="human" speed="11.09" pos="44.31" lane="e0_0" slope="0.00"/>
        <vehicle id="background.4" x="25.95" y="-1.60" angle="90.00" type="human" speed="10.63" pos="25.95" lane="e0_0" slope="0.00"/>
        <vehicle id="ego" x="5.10" y="-1.60" angle="90.00" type="ego_type" speed="0.00" pos="5.10" lane="e0_0" slope="0.00"/>
    </timestep>
    <timestep time="60.50">
        <vehicle id="background.1" x="299.00" y="-1.60" angle="90.00" type="human" speed="0.00" pos="299.00" lane="e0_0" slope="0.00"/>
        <vehicle id="background.2" x="120.82" y="-1.60" angle="90.00" type="human" speed="13.52" pos="120.82" lane="e0_0" slope="0.00"/>
        <vehicle id="background.3" x="49.92" y="-1.60" angle="90.00" type="human" speed="11.22" pos="49.92" lane="e0_0" slope="0.00"/>
        <vehicle id="background.4" x="31.36" y="-1.60" angle="90.00" type="human" speed="10.82" pos="31.36" lane="e0_0" slope="0.00"/>
        <vehicle id="ego" x="5.35" y="-1.60" angle="90.00" type="ego_type" speed="0.50" pos="5.35" lane="e0_0" slope="0.00"/>
    </timestep>
    <timestep time="61.00">
        <vehicle id="background.1" x="299.00" y="-1.60" angle="90.00" type="human" speed="0.00" pos="299.00" lane="e0_0" slope="0.00"/>
        <vehicle id="background.2" x="127.62" y="-1.60" angle="90.00" type="human" speed="13.60" pos="127.62" lane="e0_0" slope="0.00"/>
        <vehicle id="background.3" x="55.59" y="-1.60" angle="90.00" type="human" speed="11.33" pos="55.59" lane="e0_0" slope="0.00"/>
        <vehicle id="background.4" x="36.92" y="-1.60" angle="90.00" type="human" speed="11.10" pos="36.92" lane="e0_0" slope="0.00"/>
        <vehicle id="ego" x="5.60" y="-1.60" angle="90.00" type="ego_type" speed="0.50" pos="5.60" lane="e0_0" slope="0.00"/>
    </timestep>
    <timestep time="61.50">
        <vehicle id="background.1" x="299.00" y="-1.60" angle="90.00" type="human" speed="0.00" pos="299.00" lane="e0_0" slope="0.00"/>
        <vehicle id="background.2" x="134.46" y="-1.60" angle="90.00" type="human" speed="13.67" pos="134.46" lane="e0_0" slope="0.00"/>
        <vehicle id="background.3" x="61.20" y="-1.60" angle="90.00" type="human" speed="11.23" pos="61.20" lane="e0_0" slope="0.00"/>
        <vehicle id="background.4" x="42.38" y="-1.60" angle="90.00" type="human" speed="10.94" pos="42.38" lane="e0_0" slope="0.00"/>
        <vehicle id="ego" x="6.35" y="-1.60" angle="90.00" type="ego_type" speed="1.50" pos="6.35" lane="e0_0" slope="0.00"/>
    </timestep>
    <timestep time="62.00">
        <vehicle id="background.1" x="299.00" y="-1.60" angle="90.00" type="human" speed="0.00" pos="299.00" lane="e0_0" slope="0.00"/>
        <vehicle id="background.2" x="141.19" y="-1.60" angle="90.00" type="human" speed="13.48" pos="141.19" lane="e0_0" slope="0.00"/>
        <vehicle id="background.3" x="66.72" y="-1.60" angle="90.00" type="human" speed="11.03" pos="66.72" lane="e0_0" slope="0.00"/>
        <vehicle id="background.4" x="47.86" y="-1.60" angle="90.00" type="human" speed="10.95" pos="47.86" lane="e0_0" slope="0.00"/>
        <vehicle id="ego" x="6.72" y="-1.60" angle="90.00" type="ego_type" speed="0.75" pos="6.72" lane="e0_0" slope="0.00"/>
    </timestep>
    <timestep time="62.50">
        <vehicle id="background.1" x="299.00" y="-1.60" angle="90.00" type="human" speed="0.00" pos="299.00" lane="e0_0" slope="0.00"/>
        <vehicle id="background.2" x="148.01" y="-1.60" angle="90.00" type="human" speed="13.64" pos="148.01" lane="e0_0" slope="0.00"/>
        <vehicle id="background.3" x="72.32" y="-1.60" angle="90.00" type="human" speed="11.22" pos="72.32" lane="e0_0" slope="0.00"/>
        <vehicle id="background.4" x="53.41" y="-1.60" angle="90.00" type="human" speed="11.10" pos="53.41" lane="e0_0" slope="0.00"/>
        <vehicle id="ego" x="7.10" y="-1.60" angle="90.00" type="ego_type" speed="0.75" pos="7.10" lane="e0_0" slope="0.00"/>
    </timestep>
    <timestep time="63.00">
        <vehicle id="background.1" x="299.00" y="-1.60" angle="90.00" type="human" speed="0.00" pos="299.00" lane="e0_0" slope="0.00"/>
        <vehicle id="background.2" x="154.82" y="-1.60" angle="90.00" type="human" speed="13.62" pos="154.82" lane="e0_0" slope="0.00"/>
        <vehicle id="background.3" x="78.01" y="-1.60" angle="90.00" type="human" speed="11.37" pos="78.01" lane="e0_0" slope="0.00"/>
        <vehicle id="background.4" x="58.93" y="-1.60" angle="90.00" type="human" speed="11.05" pos="58.93" lane="e0_0" slope="0.00"/>
        <vehicle id="ego" x="7.47" y="-1.60" angle="90.00" type="ego_type" speed="0.75" pos="7.47" lane="e0_0" slope="0.00"/>
    </timestep>
    <timestep time="63.50">
        <vehicle id="background.1" x="299.00" y="-1.60" angle="90.00" type="human" speed="0.00" pos="299.00" lane="e0_0" slope="0.00"/>
        <vehicle id="background.2" x="161.74" y="-1.60" angle="90.00" type="human" speed="13.84" pos="161.74" lane="e0_0" slope="0.00"/>
        <vehicle id="background.3" x="83.62" y="-1.60" angle="90.00" type="human" speed="11.21" pos="83.62" lane="e0_0" slope="0.00"/>
        <vehicle id="background.4" x="64.60" y="-1.60" angle="90.00" type="human" speed="11.33" pos="64.60" lane="e0_0" slope="0.00"/>
        <vehicle id="ego" x="7.85" y="-1.60" angle="90.00" type="ego_type" speed="0.75" pos="7.85" lane="e0_0" slope="0.00"/>
    </timestep>
    <timestep time="64.00">
        <vehicle id="background.1" x="299.00" y="-1.60" angle="90.00" type="human" speed="0.00" pos="299.00" lane="e0_0" slope="0.00"/>