<?xml version="1.0" encoding="UTF-8"?>

<!-- generated on 2026-05-15 22:32:42 by Eclipse SUMO sumo Version 1.24.0
<sumoConfiguration xmlns:xsi="http://www.w3.org/2001/XMLSchema-instance" xsi:noNamespaceSchemaLocation="http://sumo.dlr.de/xsd/sumoConfiguration.xsd">

    <input>
        <net-file value="scenarios/simple_arterial/simple_arterial.net.xml"/>
        <route-files value="scenarios/simple_arterial/simple_arterial.rou.xml"/>
        <additional-files value="scenarios/simple_arterial/simple_arterial.tls.xml"/>
    </input>

    <output>
        <fcd-output value="runs/fcd_rlhf/episode_00004_seed_44.fcd.xml"/>
    </output>

    <time>
        <begin value="0"/>
        <end value="900"/>
        <step-length value="0.5"/>
    </time>

    <report>
        <no-warnings value="true"/>
    </report>

    <traci_server>
        <remote-port value="22606"/>
    </traci_server>

    <random_number>
        <seed value="44"/>
    </random_number>

</sumoConfiguration>
-->

<fcd-export xmlns:xsi="http://www.w3.org/2001/XMLSchema-instance" xsi:noNamespaceSchemaLocation="http://sumo.dlr.de/xsd/fcd_file.xsd">
    <timestep time="0.00"/>
    <timestep time="0.50"/>
    <timestep time="1.00"/>
    <timestep time="1.50"/>
    <timestep time="2.00"/>
    <timestep time="2.50"/>
    <timestep time="3.00"/>
    <timestep time="3.50"/>
    <timestep time="4.00"/>
    <timestep time="4.50"/>
    <timestep time="5.00"/>
    <timestep time="5.50"/>
    <timestep time="6.00"/>
    <timestep time="6.50"/>
    <timestep time="7.00"/>
    <timestep time="7.50"/>
    <timestep time="8.00"/>
    <timestep time="8.50"/>
    <timestep time="9.00"/>
    <timestep time="9.50"/>
    <timestep time="10.00"/>
    <timestep time="10.50"/>
    <timestep time="11.00"/>
    <timestep time="11.50">
        <vehicle id="ego" x="5.10" y="-1.60" angle="90.00" type="ego_type" speed="3.36" pos="5.10" lane="e0_0" slope="0.00"/>
    </timestep>
    <timestep time="12.00">
        <vehicle id="ego" x="6.03" y="-1.60" angle="90.00" type="ego_type" speed="1.86" pos="6.03" lane="e0_0" slope="0.00"/>
    </timestep>
    <timestep time="12.50">
        <vehicle id="ego" x="7.33" y="-1.60" angle="90.00" type="ego_type" speed="2.61" pos="7.33" lane="e0_0" slope="0.00"/>
    </timestep>
    <timestep time="13.00">
        <vehicle id="ego" x="8.51" y="-1.60" angle="90.00" type="ego_type" speed="2.36" pos="8.51" lane="e0_0" slope="0.00"/>
    </timestep>
    <timestep time="13.50">
        <vehicle id="ego" x="9.81" y="-1.60" angle="90.00" type="ego_type" speed="2.61" pos="9.81" lane="e0_0" slope="0.00"/>
    </timestep>
    <timestep time="14.00">
        <vehicle id="ego" x="10.49" y="-1.60" angle="90.00" type="ego_type" speed="1.36" pos="10.49" lane="e0_0" slope="0.00"/>
    </timestep>
    <timestep time="14.50">
        <vehicle id="ego" x="10.79" y="-1.60" angle="90.00" type="ego_type" speed="0.61" pos="10.79" lane="e0_0" slope="0.00"/>
    </timestep>
    <timestep time="15.00">
        <vehicle id="ego" x="10.97" y="-1.60" angle="90.00" type="ego_type" speed="0.36" pos="10.97" lane="e0_0" slope="0.00"/>
    </timestep>
    <timestep time="15.50">
        <vehicle id="ego" x="11.65" y="-1.60" angle="90.00" type="ego_type" speed="1.36" pos="11.65" lane="e0_0" slope="0.00"/>
    </timestep>
    <timestep time="16.00">
        <vehicle id="ego" x="11.70" y="-1.60" angle="90.00" type="ego_type" speed="0.11" pos="11.70" lane="e0_0" slope="0.00"/>
    </timestep>
    <timestep time="16.50">
        <vehicle id="ego" x="11.88" y="-1.60" angle="90.00" type="ego_type" speed="0.36" pos="11.88" lane="e0_0" slope="0.00"/>
    </timestep>
    <timestep time="17.00">
        <vehicle id="ego" x="12.43" y="-1.60" angle="90.00" type="ego_type" speed="1.11" pos="12.43" lane="e0_0" slope="0.00"/>
    </timestep>
    <timestep time="17.50">
        <vehicle id="ego" x="13.11" y="-1.60" angle="90.00" type="ego_type" speed="1.36" pos="13.11" lane="e0_0" slope="0.00"/>
    </timestep>
    <timestep time="18.00">
        <vehicle id="ego" x="13.66" y="-1.60" angle="90.00" type="ego_type" speed="1.11" pos="13.66" lane="e0_0" slope="0.00"/>
    </timestep>
    <timestep time="18.50">
        <vehicle id="ego" x="13.71" y="-1.60" angle="90.00" type="ego_type" speed="0.11" pos="13.71" lane="e0_0" slope="0.00"/>
    </timestep>
    <timestep time="19.00">
        <vehicle id="ego" x="14.02" y="-1.60" angle="90.00" type="ego_type" speed="0.61" pos="14.02" lane="e0_0" slope="0.00"/>
    </timestep>
    <timestep time="19.50">
        <vehicle id="ego" x="14.57" y="-1.60" angle="90.00" type="ego_type" speed="1.11" pos="14.57" lane="e0_0" slope="0.00"/>
    </timestep>
    <timestep time="20.00">
        <vehicle id="ego" x="15.62" y="-1.60" angle="90.00" type="ego_type" speed="2.11" pos="15.62" lane="e0_0" slope="0.00"/>
    </timestep>
    <timestep time="20.50">
        <vehicle id="background.0" x="5.10" y="-1.60" angle="90.00" type="human" speed="3.56" pos="5.10" lane="e0_0" slope="0.00"/>
        <vehicle id="ego" x="16.92" y="-1.60" angle="90.00" type="ego_type" speed="2.61" pos="16.92" lane="e0_0" slope="0.00"/>
    </timestep>
    <timestep time="21.00">
        <vehicle id="background.0" x="6.83" y="-1.60" angle="90.00" type="human" speed="3.45" pos="6.83" lane="e0_0" slope="0.00"/>
        <vehicle id="ego" x="18.48" y="-1.60" angle="90.00" type="ego_type" speed="3.11" pos="18.48" lane="e0_0" slope="0.00"/>
    </timestep>
    <timestep time="21.50">
        <vehicle id="background.0" x="8.56" y="-1.60" angle="90.00" type="human" speed="3.47" pos="8.56" lane="e0_0" slope="0.00"/>
        <vehicle id="ego" x="20.53" y="-1.60" angle="90.00" type="ego_type" speed="4.11" pos="20.53" lane="e0_0" slope="0.00"/>
    </timestep>
    <timestep time="22.00">
        <vehicle id="background.0" x="10.47" y="-1.60" angle="90.00" type="human" speed="3.82" pos="10.47" lane="e0_0" slope="0.00"/>
        <vehicle id="ego" x="22.58" y="-1.60" angle="90.00" type="ego_type" speed="4.11" pos="22.58" lane="e0_0" slope="0.00"/>
    </timestep>
    <timestep time="22.50">
        <vehicle id="background.0" x="12.50" y="-1.60" angle="90.00" type="human" speed="4.05" pos="12.50" lane="e0_0" slope="0.00"/>
        <vehicle id="ego" x="24.01" y="-1.60" angle="90.00" type="ego_type" speed="2.86" pos="24.01" lane="e0_0" slope="0.00"/>
    </timestep>
    <timestep time="23.00">
        <vehicle id="background.0" x="14.03" y="-1.60" angle="90.00" type="human" speed="3.06" pos="14.03" lane="e0_0" slope="0.00"/>
        <vehicle id="ego" x="25.44" y="-1.60" angle="90.00" type="ego_type" speed="2.86" pos="25.44" lane="e0_0" slope="0.00"/>
    </timestep>
    <timestep time="23.50">
        <vehicle id="background.0" x="15.53" y="-1.60" angle="90.00" type="human" speed="3.01" pos="15.53" lane="e0_0" slope="0.00"/>
        <vehicle id="ego" x="26.49" y="-1.60" angle="90.00" type="ego_type" speed="2.11" pos="26.49" lane="e0_0" slope="0.00"/>
    </timestep>
    <timestep time="24.00">
        <vehicle id="background.0" x="16.98" y="-1.60" angle="90.00" type="human" speed="2.88" pos="16.98" lane="e0_0" slope="0.00"/>
        <vehicle id="ego" x="27.29" y="-1.60" angle="90.00" type="ego_type" speed="1.61" pos="27.29" lane="e0_0" slope="0.00"/>
    </timestep>
    <timestep time="24.50">
        <vehicle id="background.0" x="18.04" y="-1.60" angle="90.00" type="human" speed="2.13" pos="18.04" lane="e0_0" slope="0.00"/>
        <vehicle id="ego" x="27.35" y="-1.60" angle="90.00" type="ego_type" speed="0.11" pos="27.35" lane="e0_0" slope="0.00"/>
    </timestep>
    <timestep time="25.00">
        <vehicle id="background.0" x="18.76" y="-1.60" angle="90.00" type="human" speed="1.43" pos="18.76" lane="e0_0" slope="0.00"/>
        <vehicle id="ego" x="27.52" y="-1.60" angle="90.00" type="ego_type" speed="0.36" pos="27.52" lane="e0_0" slope="0.00"/>
    </timestep>
    <timestep time="25.50">
        <vehicle id="background.0" x="19.39" y="-1.60" angle="90.00" type="human" speed="1.26" pos="19.39" lane="e0_0" slope="0.00"/>
        <vehicle id="ego" x="28.20" y="-1.60" angle="90.00" type="ego_type" speed="1.36" pos="28.20" lane="e0_0" slope="0.00"/>
    </timestep>
    <timestep time="26.00">
        <vehicle id="background.0" x="19.94" y="-1.60" angle="90.00" type="human" speed="1.10" pos="19.94" lane="e0_0" slope="0.00"/>
        <vehicle id="ego" x="29.38" y="-1.60" angle="90.00" type="ego_type" speed="2.36" pos="29.38" lane="e0_0" slope="0.00"/>
    </timestep>
    <timestep time="26.50">
        <vehicle id="background.0" x="20.84" y="-1.60" angle="90.00" type="human" speed="1.80" pos="20.84" lane="e0_0" slope="0.00"/>
        <vehicle id="ego" x="30.68" y="-1.60" angle="90.00" type="ego_type" speed="2.61" pos="30.68" lane="e0_0" slope="0.00"/>
    </timestep>
    <timestep time="27.00">
        <vehicle id="background.0" x="21.82" y="-1.60" angle="90.00" type="human" speed="1.97" pos="21.82" lane="e0_0" slope="0.00"/>
        <vehicle id="ego" x="31.98" y="-1.60" angle="90.00" type="ego_type" speed="2.61" pos="31.98" lane="e0_0" slope="0.00"/>
    </timestep>
    <timestep time="27.50">
        <vehicle id="background.0" x="23.10" y="-1.60" angle="90.00" type="human" speed="2.55" pos="23.10" lane="e0_0" slope="0.00"/>
        <vehicle id="ego" x="32.54" y="-1.60" angle="90.00" type="ego_type" speed="1.11" pos="32.54" lane="e0_0" slope="0.00"/>
    </timestep>
    <timestep time="28.00">
        <vehicle id="background.0" x="23.98" y="-1.60" angle="90.00" type="human" speed="1.76" pos="23.98" lane="e0_0" slope="0.00"/>
        <vehicle id="ego" x="32.97" y="-1.60" angle="90.00" type="ego_type" speed="0.86" pos="32.97" lane="e0_0" slope="0.00"/>
    </timestep>
    <timestep time="28.50">
        <vehicle id="background.0" x="24.68" y="-1.60" angle="90.00" type="human" speed="1.39" pos="24.68" lane="e0_0" slope="0.00"/>
        <vehicle id="ego" x="33.39" y="-1.60" angle="90.00" type="ego_type" speed="0.86" pos="33.39" lane="e0_0" slope="0.00"/>
    </timestep>
    <timestep time="29.00">
        <vehicle id="background.0" x="25.28" y="-1.60" angle="90.00" type="human" speed="1.21" pos="25.28" lane="e0_0" slope="0.00"/>
        <vehicle id="ego" x="34.32" y="-1.60" angle="90.00" type="ego_type" speed="1.86" pos="34.32" lane="e0_0" slope="0.00"/>
    </timestep>
    <timestep time="29.50">
        <vehicle id="background.0" x="25.90" y="-1.60" angle="90.00" type="human" speed="1.25" pos="25.90" lane="e0_0" slope="0.00"/>
        <vehicle id="ego" x="34.62" y="-1.60" angle="90.00" type="ego_type" speed="0.61" pos="34.62" lane="e0_0" slope="0.00"/>
    </timestep>
    <timestep time="30.00">
        <vehicle id="background.0" x="26.39" y="-1.60" angle="90.00" type="human" speed="0.97" pos="26.39" lane="e0_0" slope="0.00"/>
        <vehicle id="ego" x="35.05" y="-1.60" angle="90.00" type="ego_type" speed="0.86" pos="35.05" lane="e0_0" slope="0.00"/>
    </timestep>
    <timestep time="30.50">
        <vehicle id="background.0" x="26.86" y="-1.60" angle="90.00" type="human" speed="0.95" pos="26.86" lane="e0_0" slope="0.00"/>
        <vehicle id="ego" x="35.98" y="-1.60" angle="90.00" type="ego_type" speed="1.86" pos="35.98" lane="e0_0" slope="0.00"/>
    </timestep>
    <timestep time="31.00">
        <vehicle id="background.0" x="27.68" y="-1.60" angle="90.00" type="human" speed="1.63" pos="27.68" lane="e0_0" slope="0.00"/>
        <vehicle id="ego" x="37.28" y="-1.60" angle="90.00" type="ego_type" speed="2.61" pos="37.28" lane="e0_0" slope="0.00"/>
    </timestep>
    <timestep time="31.50">
        <vehicle id="background.0" x="28.61" y="-1.60" angle="90.00" type="human" speed="1.88" pos="28.61" lane="e0_0" slope="0.00"/>
        <vehicle id="ego" x="38.33" y="-1.60" angle="90.00" type="ego_type" speed="2.11" pos="38.33" lane="e0_0" slope="0.00"/>
    </timestep>
    <timestep time="32.00">
        <vehicle id="background.0" x="29.60" y="-1.60" angle="90.00" type="human" speed="1.98" pos="29.60" lane="e0_0" slope="0.00"/>
        <vehicle id="ego" x="39.64" y="-1.60" angle="90.00" type="ego_type" speed="2.61" pos="39.64" lane="e0_0" slope="0.00"/>
    </timestep>
    <timestep time="32.50">
        <vehicle id="background.0" x="30.64" y="-1.60" angle="90.00" type="human" speed="2.07" pos="30.64" lane="e0_0" slope="0.00"/>
        <vehicle id="ego" x="40.31" y="-1.60" angle="90.00" type="ego_type" speed="1.36" pos="40.31" lane="e0_0" slope="0.00"/>
    </timestep>
    <timestep time="33.00">
        <vehicle id="background.0" x="31.56" y="-1.60" angle="90.00" type="human" speed="1.84" pos="31.56" lane="e0_0" slope="0.00"/>
        <vehicle id="ego" x="40.99" y="-1.60" angle="90.00" type="ego_type" speed="1.36" pos="40.99" lane="e0_0" slope="0.00"/>
    </timestep>
    <timestep time="33.50">
        <vehicle id="background.0" x="32.33" y="-1.60" angle="90.00" type="human" speed="1.54" pos="32.33" lane="e0_0" slope="0.00"/>
        <vehicle id="ego" x="42.05" y="-1.60" angle="90.00" type="ego_type" speed="2.11" pos="42.05" lane="e0_0" slope="0.00"/>
    </timestep>
    <timestep time="34.00">
        <vehicle id="background.0" x="33.18" y="-1.60" angle="90.00" type="human" speed="1.70" pos="33.18" lane="e0_0" slope="0.00"/>
        <vehicle id="ego" x="43.22" y="-1.60" angle="90.00" type="ego_type" speed="2.36" pos="43.22" lane="e0_0" slope="0.00"/>
    </timestep>
    <timestep time="34.50">
        <vehicle id="background.0" x="34.36" y="-1.60" angle="90.00" type="human" speed="2.36" pos="34.36" lane="e0_0" slope="0.00"/>
        <vehicle id="ego" x="44.40" y="-1.60" angle="90.00" type="ego_type" speed="2.36" pos="44.40" lane="e0_0" slope="0.00"/>
    </timestep>
    <timestep time="35.00">
        <vehicle id="background.0" x="35.38" y="-1.60" angle="90.00" type="human" speed="2.04" pos="35.38" lane="e0_0" slope="0.00"/>
        <vehicle id="ego" x="45.33" y="-1.60" angle="90.00" type="ego_type" speed="1.86" pos="45.33" lane="e0_0" slope="0.00"/>
    </timestep>
    <timestep time="35.50">
        <vehicle id="background.0" x="36.41" y="-1.60" angle="90.00" type="human" speed="2.06" pos="36.41" lane="e0_0" slope="0.00"/>
        <vehicle id="ego" x="46.13" y="-1.60" angle="90.00" type="ego_type" speed="1.61" pos="46.13" lane="e0_0" slope="0.00"/>
    </timestep>
    <timestep time="36.00">
        <vehicle id="background.0" x="37.22" y="-1.60" angle="90.00" type="human" speed="1.61" pos="37.22" lane="e0_0" slope="0.00"/>
        <vehicle id="ego" x="47.31" y="-1.60" angle="90.00" type="ego_type" speed="2.36" pos="47.31" lane="e0_0" slope="0.00"/>
    </timestep>
    <timestep time="36.50">
        <vehicle id="background.0" x="38.33" y="-1.60" angle="90.00" type="human" speed="2.23" pos="38.33" lane="e0_0" slope="0.00"/>
        <vehicle id="ego" x="48.74" y="-1.60" angle="90.00" type="ego_type" speed="2.86" pos="48.74" lane="e0_0" slope="0.00"/>
    </timestep>
    <timestep time="37.00">
        <vehicle id="background.0" x="39.67" y="-1.60" angle="90.00" type="human" speed="2.69" pos="39.67" lane="e0_0" slope="0.00"/>
        <vehicle id="ego" x="50.16" y="-1.60" angle="90.00" type="ego_type" speed="2.86" pos="50.16" lane="e0_0" slope="0.00"/>
    </timestep>
    <timestep time="37.50">
        <vehicle id="background.0" x="41.11" y="-1.60" angle="90.00" type="human" speed="2.88" pos="41.11" lane="e0_0" slope="0.00"/>
        <vehicle id="ego" x="51.72" y="-1.60" angle="90.00" type="ego_type" speed="3.11" pos="51.72" lane="e0_0" slope="0.00"/>
    </timestep>
    <timestep time="38.00">
        <vehicle id="background.0" x="42.66" y="-1.60" angle="90.00" type="human" speed="3.09" pos="42.66" lane="e0_0" slope="0.00"/>
        <vehicle id="ego" x="52.89" y="-1.60" angle="90.00" type="ego_type" speed="2.36" pos="52.89" lane="e0_0" slope="0.00"/>
    </timestep>
    <timestep time="38.50">
        <vehicle id="background.0" x="43.92" y="-1.60" angle="90.00" type="human" speed="2.52" pos="43.92" lane="e0_0" slope="0.00"/>
        <vehicle id="ego" x="53.45" y="-1.60" angle="90.00" type="ego_type" speed="1.11" pos="53.45" lane="e0_0" slope="0.00"/>
    </timestep>
    <timestep time="39.00">
        <vehicle id="background.0" x="44.65" y="-1.60" angle="90.00" type="human" speed="1.47" pos="44.65" lane="e0_0" slope="0.00"/>
        <vehicle id="ego" x="53.88" y="-1.60" angle="90.00" type="ego_type" speed="0.86" pos="53.88" lane="e0_0" slope="0.00"/>
    </timestep>
    <timestep time="39.50">
        <vehicle id="background.0" x="45.31" y="-1.60" angle="90.00" type="human" speed="1.32" pos="45.31" lane="e0_0" slope="0.00"/>
        <vehicle id="ego" x="54.80" y="-1.60" angle="90.00" type="ego_type" speed="1.86" pos="54.80" lane="e0_0" slope="0.00"/>
    </timestep>
    <timestep time="40.00">
        <vehicle id="background.0" x="46.05" y="-1.60" angle="90.00" type="human" speed="1.47" pos="46.05" lane="e0_0" slope="0.00"/>
        <vehicle id="ego" x="56.11" y="-1.60" angle="90.00" type="ego_type" speed="2.61" pos="56.11" lane="e0_0" slope="0.00"/>
    </timestep>
    <timestep time="40.50">
        <vehicle id="background.0" x="47.22" y="-1.60" angle="90.00" type="human" speed="2.33" pos="47.22" lane="e0_0" slope="0.00"/>
        <vehicle id="ego" x="57.78" y="-1.60" angle="90.00" type="ego_type" speed="3.36" pos="57.78" lane="e0_0" slope="0.00"/>
    </timestep>
    <timestep time="41.00">
        <vehicle id="background.0" x="48.65" y="-1.60" angle="90.00" type="human" speed="2.87" pos="48.65" lane="e0_0" slope="0.00"/>
        <vehicle id="ego" x="59.59" y="-1.60" angle="90.00" type="ego_type" speed="3.61" pos="59.59" lane="e0_0" slope="0.00"/>
    </timestep>
    <timestep time="41.50">
        <vehicle id="background.0" x="50.26" y="-1.60" angle="90.00" type="human" speed="3.22" pos="50.26" lane="e0_0" slope="0.00"/>
        <vehicle id="ego" x="61.01" y="-1.60" angle="90.00" type="ego_type" speed="2.86" pos="61.01" lane="e0_0" slope="0.00"/>
    </timestep>
    <timestep time="42.00">
        <vehicle id="background.0" x="51.79" y="-1.60" angle="90.00" type="human" speed="3.06" pos="51.79" lane="e0_0" slope="0.00"/>
        <vehicle id="ego" x="62.57" y="-1.60" angle="90.00" type="ego_type" speed="3.11" pos="62.57" lane="e0_0" slope="0.00"/>
    </timestep>
    <timestep time="42.50">
        <vehicle id="background.0" x="53.21" y="-1.60" angle="90.00" type="human" speed="2.83" pos="53.21" lane="e0_0" slope="0.00"/>
        <vehicle id="ego" x="64.12" y="-1.60" angle="90.00" type="ego_type" speed="3.11" pos="64.12" lane="e0_0" slope="0.00"/>
    </timestep>
    <timestep time="43.00">
        <vehicle id="background.0" x="54.74" y="-1.60" angle="90.00" type="human" speed="3.07" pos="54.74" lane="e0_0" slope="0.00"/>
        <vehicle id="ego" x="65.17" y="-1.60" angle="90.00" type="ego_type" speed="2.11" pos="65.17" lane="e0_0" slope="0.00"/>
    </timestep>
    <timestep time="43.50">
        <vehicle id="background.0" x="56.02" y="-1.60" angle="90.00" type="human" speed="2.55" pos="56.02" lane="e0_0" slope="0.00"/>
        <vehicle id="ego" x="66.23" y="-1.60" angle="90.00" type="ego_type" speed="2.11" pos="66.23" lane="e0_0" slope="0.00"/>
    </timestep>
    <timestep time="44.00">
        <vehicle id="background.0" x="57.15" y="-1.60" angle="90.00" type="human" speed="2.27" pos="57.15" lane="e0_0" slope="0.00"/>
        <vehicle id="ego" x="67.28" y="-1.60" angle="90.00" type="ego_type" speed="2.11" pos="67.28" lane="e0_0" slope="0.00"/>
    </timestep>
    <timestep time="44.50">
        <vehicle id="background.0" x="58.37" y="-1.60" angle="90.00" type="human" speed="2.44" pos="58.37" lane="e0_0" slope="0.00"/>
        <vehicle id="ego" x="67.71" y="-1.60" angle="90.00" type="ego_type" speed="0.86" pos="67.71" lane="e0_0" slope="0.00"/>
    </timestep>
    <timestep time="45.00">
        <vehicle id="background.0" x="59.03" y="-1.60" angle="90.00" type="human" speed="1.33" pos="59.03" lane="e0_0" slope="0.00"/>
        <vehicle id="ego" x="67.76" y="-1.60" angle="90.00" type="ego_type" speed="0.11" pos="67.76" lane="e0_0" slope="0.00"/>
    </timestep>
    <timestep time="45.50">
        <vehicle id="background.0" x="59.56" y="-1.60" angle="90.00" type="human" speed="1.06" pos="59.56" lane="e0_0" slope="0.00"/>
        <vehicle id="ego" x="68.06" y="-1.60" angle="90.00" type="ego_type" speed="0.61" pos="68.06" lane="e0_0" slope="0.00"/>
    </timestep>
    <timestep time="46.00">
        <vehicle id="background.0" x="59.97" y="-1.60" angle="90.00" type="human" speed="0.81" pos="59.97" lane="e0_0" slope="0.00"/>
        <vehicle id="ego" x="68.49" y="-1.60" angle="90.00" type="ego_type" speed="0.86" pos="68.49" lane="e0_0" slope="0.00"/>
    </timestep>
    <timestep time="46.50">
        <vehicle id="background.0" x="60.38" y="-1.60" angle="90.00" type="human" speed="0.84" pos="60.38" lane="e0_0" slope="0.00"/>
        <vehicle id="ego" x="68.92" y="-1.60" angle="90.00" type="ego_type" speed="0.86" pos="68.92" lane="e0_0" slope="0.00"/>
    </timestep>
    <timestep time="47.00">
        <vehicle id="background.0" x="60.79" y="-1.60" angle="90.00" type="human" speed="0.82" pos="60.79" lane="e0_0" slope="0.00"/>
        <vehicle id="ego" x="69.34" y="-1.60" angle="90.00" type="ego_type" speed="0.86" pos="69.34" lane="e0_0" slope="0.00"/>
    </timestep>
    <timestep time="47.50">
        <vehicle id="background.0" x="61.23" y="-1.60" angle="90.00" type="human" speed="0.88" pos="61.23" lane="e0_0" slope="0.00"/>
        <vehicle id="ego" x="70.02" y="-1.60" angle="90.00" type="ego_type" speed="1.36" pos="70.02" lane="e0_0" slope="0.00"/>
    </timestep>
    <timestep time="48.00">
        <vehicle id="background.0" x="61.78" y="-1.60" angle="90.00" type="human" speed="1.09" pos="61.78" lane="e0_0" slope="0.00"/>
        <vehicle id="ego" x="70.45" y="-1.60" angle="90.00" type="ego_type" speed="0.86" pos="70.45" lane="e0_0" slope="0.00"/>
    </timestep>
    <timestep time="48.50">
        <vehicle id="background.0" x="62.29" y="-1.60" angle="90.00" type="human" speed="1.04" pos="62.29" lane="e0_0" slope="0.00"/>
        <vehicle id="ego" x="70.75" y="-1.60" angle="90.00" type="ego_type" speed="0.61" pos="70.75" lane="e0_0" slope="0.00"/>
    </timestep>
    <timestep time="49.00">
        <vehicle id="background.0" x="62.68" y="-1.60" angle="90.00" type="human" speed="0.78" pos="62.68" lane="e0_0" slope="0.00"/>
        <vehicle id="ego" x="70.81" y="-1.60" angle="90.00" type="ego_type" speed="0.11" pos="70.81" lane="e0_0" slope="0.00"/>
    </timestep>
    <timestep time="49.50">
        <vehicle id="background.0" x="62.99" y="-1.60" angle="90.00" type="human" speed="0.61" pos="62.99" lane="e0_0" slope="0.00"/>
        <vehicle id="ego" x="70.98" y="-1.60" angle="90.00" type="ego_type" speed="0.36" pos="70.98" lane="e0_0" slope="0.00"/>
    </timestep>
    <timestep time="50.00">
        <vehicle id="background.0" x="63.18" y="-1.60" angle="90.00" type="human" speed="0.38" pos="63.18" lane="e0_0" slope="0.00"/>
        <vehicle id="ego" x="71.41" y="-1.60" angle="90.00" type="ego_type" speed="0.86" pos="71.41" lane="e0_0" slope="0.00"/>
    </timestep>
    <timestep time="50.50">
        <vehicle id="background.0" x="63.46" y="-1.60" angle="90.00" type="human" speed="0.56" pos="63.46" lane="e0_0" slope="0.00"/>
        <vehicle id="ego" x="72.09" y="-1.60" angle="90.00" type="ego_type" speed="1.36" pos="72.09" lane="e0_0" slope="0.00"/>
    </timestep>
    <timestep time="51.00">
        <vehicle id="background.0" x="63.99" y="-1.60" angle="90.00" type="human" speed="1.07" pos="63.99" lane="e0_0" slope="0.00"/>
        <vehicle id="ego" x="72.27" y="-1.60" angle="90.00" type="ego_type" speed="0.36" pos="72.27" lane="e0_0" slope="0.00"/>
    </timestep>
    <timestep time="51.50">
        <vehicle id="background.0" x="64.32" y="-1.60" angle="90.00" type="human" speed="0.65" pos="64.32" lane="e0_0" slope="0.00"/>
        <vehicle id="ego" x="72.32" y="-1.60" angle="90.00" type="ego_type" speed="0.11" pos="72.32" lane="e0_0" slope="0.00"/>
    </timestep>
    <timestep time="52.00">
        <vehicle id="background.0" x="64.54" y="-1.60" angle="90.00" type="human" speed="0.44" pos="64.54" lane="e0_0" slope="0.00"/>
        <vehicle id="ego" x="72.50" y="-1.60" angle="90.00" type="ego_type" speed="0.36" pos="72.50" lane="e0_0" slope="0.00"/>
    </timestep>
    <timestep time="52.50">
        <vehicle id="background.0" x="64.73" y="-1.60" angle="90.00" type="human" speed="0.39" pos="64.73" lane="e0_0" slope="0.00"/>
        <vehicle id="ego" x="72.92" y="-1.60" angle="90.00" type="ego_type" speed="0.86" pos="72.92" lane="e0_0" slope="0.00"/>
    </timestep>
    <timestep time="53.00">
        <vehicle id="background.0" x="65.00" y="-1.60" angle="90.00" type="human" speed="0.54" pos="65.00" lane="e0_0" slope="0.00"/>
        <vehicle id="ego" x="73.35" y="-1.60" angle="90.00" type="ego_type" speed="0.86" pos="73.35" lane="e0_0" slope="0.00"/>
    </timestep>
    <timestep time="53.50">
        <vehicle id="background.0" x="65.34" y="-1.60" angle="90.00" type="human" speed="0.68" pos="65.34" lane="e0_0" slope="0.00"/>
        <vehicle id="ego" x="73.65" y="-1.60" angle="90.00" type="ego_type" speed="0.61" pos="73.65" lane="e0_0" slope="0.00"/>
    </timestep>
    <timestep time="54.00">
        <vehicle id="background.0" x="65.65" y="-1.60" angle="90.00" type="human" speed="0.62" pos="65.65" lane="e0_0" slope="0.00"/>
        <vehicle id="ego" x="73.96" y="-1.60" angle="90.00" type="ego_type" speed="0.61" pos="73.96" lane="e0_0" slope="0.00"/>
    </timestep>
    <timestep time="54.50">
        <vehicle id="background.0" x="66.00" y="-1.60" angle="90.00" type="human" speed="0.70" pos="66.00" lane="e0_0" slope="0.00"/>
        <vehicle id="ego" x="74.76" y="-1.60" angle="90.00" type="ego_type" speed="1.61" pos="74.76" lane="e0_0" slope="0.00"/>
    </timestep>
    <timestep time="55.00">
        <vehicle id="background.0" x="66.54" y="-1.60" angle="90.00" type="human" speed="1.08" pos="66.54" lane="e0_0" slope="0.00"/>
        <vehicle id="ego" x="75.69" y="-1.60" angle="90.00" type="ego_type" speed="1.86" pos="75.69" lane="e0_0" slope="0.00"/>
    </timestep>
    <timestep time="55.50">
        <vehicle id="background.0" x="67.31" y="-1.60" angle="90.00" type="human" speed="1.55" pos="67.31" lane="e0_0" slope="0.00"/>
        <vehicle id="ego" x="76.74" y="-1.60" angle="90.00" type="ego_type" speed="2.11" pos="76.74" lane="e0_0" slope="0.00"/>
    </timestep>
    <timestep time="56.00">
        <vehicle id="background.0" x="68.29" y="-1.60" angle="90.00" type="human" speed="1.96" pos="68.29" lane="e0_0" slope="0.00"/>
        <vehicle id="ego" x="77.42" y="-1.60" angle="90.00" type="ego_type" speed="1.36" pos="77.42" lane="e0_0" slope="0.00"/>
    </timestep>
    <timestep time="56.50">
        <vehicle id="background.0" x="69.06" y="-1.60" angle="90.00" type="human" speed="1.54" pos="69.06" lane="e0_0" slope="0.00"/>
        <vehicle id="ego" x="78.47" y="-1.60" angle="90.00" type="ego_type" speed="2.11" pos="78.47" lane="e0_0" slope="0.00"/>
    </timestep>
    <timestep time="57.00">
        <vehicle id="background.0" x="69.89" y="-1.60" angle="90.00" type="human" speed="1.65" pos="69.89" lane="e0_0" slope="0.00"/>
        <vehicle id="ego" x="79.27" y="-1.60" angle="90.00" type="ego_type" speed="1.61" pos="79.27" lane="e0_0" slope="0.00"/>
    </timestep>
    <timestep time="57.50">
        <vehicle id="background.0" x="70.66" y="-1.60" angle="90.00" type="human" speed="1.55" pos="70.66" lane="e0_0" slope="0.00"/>
        <vehicle id="ego" x="79.58" y="-1.60" angle="90.00" type="ego_type" speed="0.61" pos="79.58" lane="e0_0" slope="0.00"/>
    </timestep>
    <timestep time="58.00">
        <vehicle id="background.0" x="71.34" y="-1.60" angle="90.00" type="human" speed="1.36" pos="71.34" lane="e0_0" slope="0.00"/>
        <vehicle id="ego" x="79.63" y="-1.60" angle="90.00" type="ego_type" speed="0.11" pos="79.63" lane="e0_0" slope="0.00"/>
    </timestep>
    <timestep time="58.50">
        <vehicle id="background.0" x="71.73" y="-1.60" angle="90.00" type="human" speed="0.78" pos="71.73" lane="e0_0" slope="0.00"/>
        <vehicle id="ego" x="80.18" y="-1.60" angle="90.00" type="ego_type" speed="1.11" pos="80.18" lane="e0_0" slope="0.00"/>
    </timestep>
    <timestep time="59.00">
        <vehicle id="background.0" x="72.11" y="-1.60" angle="90.00" type="human" speed="0.75" pos="72.11" lane="e0_0" slope="0.00"/>
        <vehicle id="ego" x="80.36" y="-1.60" angle="90.00" type="ego_type" speed="0.36" pos="80.36" lane="e0_0" slope="0.00"/>
    </timestep>
    <timestep time="59.50">
        <vehicle id="background.0" x="72.47" y="-1.60" angle="90.00" type="human" speed="0.72" pos="72.47" lane="e0_0" slope="0.00"/>
        <vehicle id="ego" x="80.79" y="-1.60" angle="90.00" type="ego_type" speed="0.86" pos="80.79" lane="e0_0" slope="0.00"/>
    </timestep>
    <timestep time="60.00">
        <vehicle id="background.0" x="72.82" y="-1.60" angle="90.00" type="human" speed="0.70" pos="72.82" lane="e0_0" slope="0.00"/>
        <vehicle id="ego" x="81.47" y="-1.60" angle="90.00" type="ego_type" speed="1.36" pos="81.47" lane="e0_0" slope="0.00"/>
    </timestep>
    <timestep time="60.50">
        <vehicle id="background.0" x="73.39" y="-1.60" angle="90.00" type="human" speed="1.13" pos="73.39" lane="e0_0" slope="0.00"/>
        <vehicle id="ego" x="82.52" y="-1.60" angle="90.00" type="ego_type" speed="2.11" pos="82.52" lane="e0_0" slope="0.00"/>
    </timestep>
    <timestep time="61.00">
        <vehicle id="background.0" x="74.28" y="-1.60" angle="90.00" type="human" speed="1.78" pos="74.28" lane="e0_0" slope="0.00"/>
        <vehicle id="ego" x="83.70" y="-1.60" angle="90.00" type="ego_type" speed="2.36" pos="83.70" lane="e0_0" slope="0.00"/>
    </timestep>
    <timestep time="61.50">