<?xml version="1.0" encoding="UTF-8"?>

<!-- generated on 2026-05-13 21:30:49 by Eclipse SUMO sumo Version 1.24.0
<sumoConfiguration xmlns:xsi="http://www.w3.org/2001/XMLSchema-instance" xsi:noNamespaceSchemaLocation="http://sumo.dlr.de/xsd/sumoConfiguration.xsd">

    <input>
        <net-file value="scenarios/simple_arterial/simple_arterial.net.xml"/>
        <route-files value="scenarios/simple_arterial/simple_arterial.rou.xml"/>
        <additional-files value="scenarios/simple_arterial/simple_arterial.tls.xml"/>
    </input>

    <output>
        <fcd-output value="runs/fcd_rlhf/episode_00015_seed_215.fcd.xml"/>
    </output>

    <time>
        <begin value="0"/>
        <end value="900"/>
        <step-length value="0.5"/>
    </time>

    <report>
        <no-warnings value="true"/>
    </report>

    <traci_server>
        <remote-port value="22810"/>
    </traci_server>

    <random_number>
        <seed value="215"/>
    </random_number>

</sumoConfiguration>
-->

<fcd-export xmlns:xsi="http://www.w3.org/2001/XMLSchema-instance" xsi:noNamespaceSchemaLocation="http://sumo.dlr.de/xsd/fcd_file.xsd">
    <timestep time="0.00"/>
    <timestep time="0.50"/>
    <timestep time="1.00"/>
    <timestep time="1.50"/>
    <timestep time="2.00"/>
    <timestep time="2.50"/>
    <timestep time="3.00"/>
    <timestep time="3.50"/>
    <timestep time="4.00"/>
    <timestep time="4.50"/>
    <timestep time="5.00"/>
    <timestep time="5.50"/>
    <timestep time="6.00"/>
    <timestep time="6.50"/>
    <timestep time="7.00"/>
    <timestep time="7.50"/>
    <timestep time="8.00"/>
    <timestep time="8.50"/>
    <timestep time="9.00"/>
    <timestep time="9.50"/>
    <timestep time="10.00"/>
    <timestep time="10.50"/>
    <timestep time="11.00"/>
    <timestep time="11.50"/>
    <timestep time="12.00"/>
    <timestep time="12.50"/>
    <timestep time="13.00"/>
    <timestep time="13.50"/>
    <timestep time="14.00"/>
    <timestep time="14.50"/>
    <timestep time="15.00"/>
    <timestep time="15.50"/>
    <timestep time="16.00"/>
    <timestep time="16.50"/>
    <timestep time="17.00"/>
    <timestep time="17.50"/>
    <timestep time="18.00"/>
    <timestep time="18.50"/>
    <timestep time="19.00">
        <vehicle id="background.0" x="5.10" y="-1.60" angle="90.00" type="human" speed="13.30" pos="5.10" lane="e0_0" slope="0.00"/>
    </timestep>
    <timestep time="19.50">
        <vehicle id="background.0" x="11.74" y="-1.60" angle="90.00" type="human" speed="13.28" pos="11.74" lane="e0_0" slope="0.00"/>
    </timestep>
    <timestep time="20.00">
        <vehicle id="background.0" x="18.28" y="-1.60" angle="90.00" type="human" speed="13.09" pos="18.28" lane="e0_0" slope="0.00"/>
    </timestep>
    <timestep time="20.50">
        <vehicle id="background.0" x="24.74" y="-1.60" angle="90.00" type="human" speed="12.91" pos="24.74" lane="e0_0" slope="0.00"/>
    </timestep>
    <timestep time="21.00">
        <vehicle id="background.0" x="31.14" y="-1.60" angle="90.00" type="human" speed="12.81" pos="31.14" lane="e0_0" slope="0.00"/>
    </timestep>
    <timestep time="21.50">
        <vehicle id="background.0" x="37.62" y="-1.60" angle="90.00" type="human" speed="12.95" pos="37.62" lane="e0_0" slope="0.00"/>
    </timestep>
    <timestep time="22.00">
        <vehicle id="background.0" x="44.02" y="-1.60" angle="90.00" type="human" speed="12.80" pos="44.02" lane="e0_0" slope="0.00"/>
    </timestep>
    <timestep time="22.50">
        <vehicle id="background.0" x="50.61" y="-1.60" angle="90.00" type="human" speed="13.19" pos="50.61" lane="e0_0" slope="0.00"/>
    </timestep>
    <timestep time="23.00">
        <vehicle id="background.0" x="57.26" y="-1.60" angle="90.00" type="human" speed="13.29" pos="57.26" lane="e0_0" slope="0.00"/>
    </timestep>
    <timestep time="23.50">
        <vehicle id="background.0" x="63.84" y="-1.60" angle="90.00" type="human" speed="13.17" pos="63.84" lane="e0_0" slope="0.00"/>
    </timestep>
    <timestep time="24.00">
        <vehicle id="background.0" x="70.43" y="-1.60" angle="90.00" type="human" speed="13.17" pos="70.43" lane="e0_0" slope="0.00"/>
    </timestep>
    <timestep time="24.50">
        <vehicle id="background.0" x="76.84" y="-1.60" angle="90.00" type="human" speed="12.82" pos="76.84" lane="e0_0" slope="0.00"/>
    </timestep>
    <timestep time="25.00">
        <vehicle id="background.0" x="83.40" y="-1.60" angle="90.00" type="human" speed="13.11" pos="83.40" lane="e0_0" slope="0.00"/>
    </timestep>
    <timestep time="25.50">
        <vehicle id="background.0" x="89.94" y="-1.60" angle="90.00" type="human" speed="13.09" pos="89.94" lane="e0_0" slope="0.00"/>
    </timestep>
    <timestep time="26.00">
        <vehicle id="background.0" x="96.41" y="-1.60" angle="90.00" type="human" speed="12.93" pos="96.41" lane="e0_0" slope="0.00"/>
    </timestep>
    <timestep time="26.50">
        <vehicle id="background.0" x="102.87" y="-1.60" angle="90.00" type="human" speed="12.92" pos="102.87" lane="e0_0" slope="0.00"/>
    </timestep>
    <timestep time="27.00">
        <vehicle id="background.0" x="109.30" y="-1.60" angle="90.00" type="human" speed="12.87" pos="109.30" lane="e0_0" slope="0.00"/>
    </timestep>
    <timestep time="27.50">
        <vehicle id="background.0" x="115.92" y="-1.60" angle="90.00" type="human" speed="13.23" pos="115.92" lane="e0_0" slope="0.00"/>
    </timestep>
    <timestep time="28.00">
        <vehicle id="background.0" x="122.32" y="-1.60" angle="90.00" type="human" speed="12.80" pos="122.32" lane="e0_0" slope="0.00"/>
    </timestep>
    <timestep time="28.50">
        <vehicle id="background.0" x="128.86" y="-1.60" angle="90.00" type="human" speed="13.08" pos="128.86" lane="e0_0" slope="0.00"/>
    </timestep>
    <timestep time="29.00">
        <vehicle id="background.0" x="135.48" y="-1.60" angle="90.00" type="human" speed="13.24" pos="135.48" lane="e0_0" slope="0.00"/>
    </timestep>
    <timestep time="29.50">
        <vehicle id="background.0" x="142.02" y="-1.60" angle="90.00" type="human" speed="13.07" pos="142.02" lane="e0_0" slope="0.00"/>
    </timestep>
    <timestep time="30.00">
        <vehicle id="background.0" x="148.45" y="-1.60" angle="90.00" type="human" speed="12.86" pos="148.45" lane="e0_0" slope="0.00"/>
    </timestep>
    <timestep time="30.50">
        <vehicle id="background.0" x="154.88" y="-1.60" angle="90.00" type="human" speed="12.86" pos="154.88" lane="e0_0" slope="0.00"/>
    </timestep>
    <timestep time="31.00">
        <vehicle id="background.0" x="161.39" y="-1.60" angle="90.00" type="human" speed="13.03" pos="161.39" lane="e0_0" slope="0.00"/>
    </timestep>
    <timestep time="31.50">
        <vehicle id="background.0" x="167.91" y="-1.60" angle="90.00" type="human" speed="13.04" pos="167.91" lane="e0_0" slope="0.00"/>
    </timestep>
    <timestep time="32.00">
        <vehicle id="background.0" x="174.51" y="-1.60" angle="90.00" type="human" speed="13.20" pos="174.51" lane="e0_0" slope="0.00"/>
    </timestep>
    <timestep time="32.50">
        <vehicle id="background.0" x="181.07" y="-1.60" angle="90.00" type="human" speed="13.12" pos="181.07" lane="e0_0" slope="0.00"/>
    </timestep>
    <timestep time="33.00">
        <vehicle id="background.0" x="187.50" y="-1.60" angle="90.00" type="human" speed="12.87" pos="187.50" lane="e0_0" slope="0.00"/>
    </timestep>
    <timestep time="33.50">
        <vehicle id="background.0" x="194.08" y="-1.60" angle="90.00" type="human" speed="13.15" pos="194.08" lane="e0_0" slope="0.00"/>
    </timestep>
    <timestep time="34.00">
        <vehicle id="background.0" x="200.65" y="-1.60" angle="90.00" type="human" speed="13.15" pos="200.65" lane="e0_0" slope="0.00"/>
    </timestep>
    <timestep time="34.50">
        <vehicle id="background.0" x="207.10" y="-1.60" angle="90.00" type="human" speed="12.90" pos="207.10" lane="e0_0" slope="0.00"/>
    </timestep>
    <timestep time="35.00">
        <vehicle id="background.0" x="213.56" y="-1.60" angle="90.00" type="human" speed="12.93" pos="213.56" lane="e0_0" slope="0.00"/>
    </timestep>
    <timestep time="35.50">
        <vehicle id="background.0" x="220.04" y="-1.60" angle="90.00" type="human" speed="12.96" pos="220.04" lane="e0_0" slope="0.00"/>
    </timestep>
    <timestep time="36.00">
        <vehicle id="background.0" x="226.54" y="-1.60" angle="90.00" type="human" speed="13.00" pos="226.54" lane="e0_0" slope="0.00"/>
    </timestep>
    <timestep time="36.50">
        <vehicle id="background.0" x="233.17" y="-1.60" angle="90.00" type="human" speed="13.24" pos="233.17" lane="e0_0" slope="0.00"/>
    </timestep>
    <timestep time="37.00">
        <vehicle id="background.0" x="239.64" y="-1.60" angle="90.00" type="human" speed="12.95" pos="239.64" lane="e0_0" slope="0.00"/>
    </timestep>
    <timestep time="37.50">
        <vehicle id="background.0" x="246.17" y="-1.60" angle="90.00" type="human" speed="13.06" pos="246.17" lane="e0_0" slope="0.00"/>
    </timestep>
    <timestep time="38.00">
        <vehicle id="background.0" x="252.80" y="-1.60" angle="90.00" type="human" speed="13.26" pos="252.80" lane="e0_0" slope="0.00"/>
    </timestep>
    <timestep time="38.50">
        <vehicle id="background.0" x="259.26" y="-1.60" angle="90.00" type="human" speed="12.92" pos="259.26" lane="e0_0" slope="0.00"/>
    </timestep>
    <timestep time="39.00">
        <vehicle id="background.0" x="265.75" y="-1.60" angle="90.00" type="human" speed="12.98" pos="265.75" lane="e0_0" slope="0.00"/>
    </timestep>
    <timestep time="39.50">
        <vehicle id="background.0" x="272.22" y="-1.60" angle="90.00" type="human" speed="12.94" pos="272.22" lane="e0_0" slope="0.00"/>
    </timestep>
    <timestep time="40.00">
        <vehicle id="background.0" x="278.72" y="-1.60" angle="90.00" type="human" speed="12.99" pos="278.72" lane="e0_0" slope="0.00"/>
    </timestep>
    <timestep time="40.50">
        <vehicle id="background.0" x="285.22" y="-1.60" angle="90.00" type="human" speed="13.01" pos="285.22" lane="e0_0" slope="0.00"/>
    </timestep>
    <timestep time="41.00">
        <vehicle id="background.0" x="291.69" y="-1.60" angle="90.00" type="human" speed="12.93" pos="291.69" lane="e0_0" slope="0.00"/>
    </timestep>
    <timestep time="41.50">
        <vehicle id="background.0" x="298.16" y="-1.60" angle="90.00" type="human" speed="12.94" pos="298.16" lane="e0_0" slope="0.00"/>
    </timestep>
    <timestep time="42.00">
        <vehicle id="background.0" x="304.69" y="-1.60" angle="90.00" type="human" speed="13.25" pos="4.69" lane="e1_0" slope="0.00"/>
    </timestep>
    <timestep time="42.50">
        <vehicle id="background.0" x="311.31" y="-1.60" angle="90.00" type="human" speed="13.24" pos="11.31" lane="e1_0" slope="0.00"/>
    </timestep>
    <timestep time="43.00">
        <vehicle id="background.0" x="317.95" y="-1.60" angle="90.00" type="human" speed="13.29" pos="17.95" lane="e1_0" slope="0.00"/>
    </timestep>
    <timestep time="43.50">
        <vehicle id="background.0" x="324.40" y="-1.60" angle="90.00" type="human" speed="12.90" pos="24.40" lane="e1_0" slope="0.00"/>
    </timestep>
    <timestep time="44.00">
        <vehicle id="background.0" x="330.98" y="-1.60" angle="90.00" type="human" speed="13.16" pos="30.98" lane="e1_0" slope="0.00"/>
    </timestep>
    <timestep time="44.50">
        <vehicle id="background.0" x="337.56" y="-1.60" angle="90.00" type="human" speed="13.16" pos="37.56" lane="e1_0" slope="0.00"/>
    </timestep>
    <timestep time="45.00">
        <vehicle id="background.0" x="344.10" y="-1.60" angle="90.00" type="human" speed="13.08" pos="44.10" lane="e1_0" slope="0.00"/>
    </timestep>
    <timestep time="45.50"/>
    <timestep time="46.00"/>
    <timestep time="46.50"/>
    <timestep time="47.00"/>
    <timestep time="47.50"/>
    <timestep time="48.00"/>
    <timestep time="48.50"/>
    <timestep time="49.00"/>
    <timestep time="49.50"/>
    <timestep time="50.00"/>
    <timestep time="50.50"/>
    <timestep time="51.00"/>
    <timestep time="51.50"/>
    <timestep time="52.00"/>
    <timestep time="52.50"/>
    <timestep time="53.00"/>
    <timestep time="53.50"/>
    <timestep time="54.00"/>
    <timestep time="54.50">
        <vehicle id="background.1" x="5.10" y="-1.60" angle="90.00" type="human" speed="12.68" pos="5.10" lane="e0_0" slope="0.00"/>
    </timestep>
    <timestep time="55.00">
        <vehicle id="background.1" x="11.29" y="-1.60" angle="90.00" type="human" speed="12.37" pos="11.29" lane="e0_0" slope="0.00"/>
    </timestep>
    <timestep time="55.50">
        <vehicle id="background.1" x="17.39" y="-1.60" angle="90.00" type="human" speed="12.20" pos="17.39" lane="e0_0" slope="0.00"/>
    </timestep>
    <timestep time="56.00">
        <vehicle id="background.1" x="23.49" y="-1.60" angle="90.00" type="human" speed="12.20" pos="23.49" lane="e0_0" slope="0.00"/>
    </timestep>
    <timestep time="56.50">
        <vehicle id="background.1" x="29.71" y="-1.60" angle="90.00" type="human" speed="12.44" pos="29.71" lane="e0_0" slope="0.00"/>
    </timestep>
    <timestep time="57.00">
        <vehicle id="background.1" x="35.93" y="-1.60" angle="90.00" type="human" speed="12.45" pos="35.93" lane="e0_0" slope="0.00"/>
    </timestep>
    <timestep time="57.50">
        <vehicle id="background.1" x="42.13" y="-1.60" angle="90.00" type="human" speed="12.39" pos="42.13" lane="e0_0" slope="0.00"/>
    </timestep>
    <timestep time="58.00">
        <vehicle id="background.1" x="48.22" y="-1.60" angle="90.00" type="human" speed="12.19" pos="48.22" lane="e0_0" slope="0.00"/>
    </timestep>
    <timestep time="58.50">
        <vehicle id="background.1" x="54.54" y="-1.60" angle="90.00" type="human" speed="12.64" pos="54.54" lane="e0_0" slope="0.00"/>
    </timestep>
    <timestep time="59.00">
        <vehicle id="background.1" x="60.71" y="-1.60" angle="90.00" type="human" speed="12.34" pos="60.71" lane="e0_0" slope="0.00"/>
    </timestep>
    <timestep time="59.50">
        <vehicle id="background.1" x="66.80" y="-1.60" angle="90.00" type="human" speed="12.18" pos="66.80" lane="e0_0" slope="0.00"/>
    </timestep>
    <timestep time="60.00">
        <vehicle id="background.1" x="72.89" y="-1.60" angle="90.00" type="human" speed="12.18" pos="72.89" lane="e0_0" slope="0.00"/>
    </timestep>
    <timestep time="60.50">
        <vehicle id="background.1" x="79.20" y="-1.60" angle="90.00" type="human" speed="12.61" pos="79.20" lane="e0_0" slope="0.00"/>
    </timestep>
    <timestep time="61.00">
        <vehicle id="background.1" x="85.39" y="-1.60" angle="90.00" type="human" speed="12.38" pos="85.39" lane="e0_0" slope="0.00"/>
    </timestep>
    <timestep time="61.50">
        <vehicle id="background.1" x="91.49" y="-1.60" angle="90.00" type="human" speed="12.21" pos="91.49" lane="e0_0" slope="0.00"/>
    </timestep>
    <timestep time="62.00">
        <vehicle id="background.1" x="97.78" y="-1.60" angle="90.00" type="human" speed="12.58" pos="97.78" lane="e0_0" slope="0.00"/>
        <vehicle id="background.2" x="5.10" y="-1.60" angle="90.00" type="human" speed="12.63" pos="5.10" lane="e0_0" slope="0.00"/>
    </timestep>
    <timestep time="62.50">
        <vehicle id="background.1" x="103.93" y="-1.60" angle="90.00" type="human" speed="12.29" pos="103.93" lane="e0_0" slope="0.00"/>
        <vehicle id="background.2" x="11.39" y="-1.60" angle="90.00" type="human" speed="12.58" pos="11.39" lane="e0_0" slope="0.00"/>
    </timestep>
    <timestep time="63.00">
        <vehicle id="background.1" x="110.14" y="-1.60" angle="90.00" type="human" speed="12.43" pos="110.14" lane="e0_0" slope="0.00"/>
        <vehicle id="background.2" x="17.65" y="-1.60" angle="90.00" type="human" speed="12.52" pos="17.65" lane="e0_0" slope="0.00"/>
    </timestep>
    <timestep time="63.50">
        <vehicle id="background.1" x="116.24" y="-1.60" angle="90.00" type="human" speed="12.20" pos="116.24" lane="e0_0" slope="0.00"/>
        <vehicle id="background.2" x="23.81" y="-1.60" angle="90.00" type="human" speed="12.32" pos="23.81" lane="e0_0" slope="0.00"/>
    </timestep>
    <timestep time="64.00">
        <vehicle id="background.1" x="122.53" y="-1.60" angle="90.00" type="human" speed="12.57" pos="122.53" lane="e0_0" slope="0.00"/>
        <vehicle id="background.2" x="29.97" y="-1.60" angle="90.00" type="human" speed="12.32" pos="29.97" lane="e0_0" slope="0.00"/>
    </timestep>
    <timestep time="64.50">
        <vehicle id="background.1" x="128.85" y="-1.60" angle="90.00" type="human" speed="12.65" pos="128.85" lane="e0_0" slope="0.00"/>
        <vehicle id="background.2" x="36.22" y="-1.60" angle="90.00" type="human" speed="12.50" pos="36.22" lane="e0_0" slope="0.00"/>
    </timestep>
    <timestep time="65.00">
        <vehicle id="background.1" x="135.11" y="-1.60" angle="90.00" type="human" speed="12.51" pos="135.11" lane="e0_0" slope="0.00"/>
        <vehicle id="background.2" x="42.36" y="-1.60" angle="90.00" type="human" speed="12.27" pos="42.36" lane="e0_0" slope="0.00"/>
    </timestep>
    <timestep time="65.50">
        <vehicle id="background.1" x="141.37" y="-1.60" angle="90.00" type="human" speed="12.53" pos="141.37" lane="e0_0" slope="0.00"/>
        <vehicle id="background.2" x="48.64" y="-1.60" angle="90.00" type="human" speed="12.57" pos="48.64" lane="e0_0" slope="0.00"/>
    </timestep>
    <timestep time="66.00">
        <vehicle id="background.1" x="147.67" y="-1.60" angle="90.00" type="human" speed="12.59" pos="147.67" lane="e0_0" slope="0.00"/>
        <vehicle id="background.2" x="54.90" y="-1.60" angle="90.00" type="human" speed="12.52" pos="54.90" lane="e0_0" slope="0.00"/>
    </timestep>
    <timestep time="66.50">
        <vehicle id="background.1" x="153.79" y="-1.60" angle="90.00" type="human" speed="12.25" pos="153.79" lane="e0_0" slope="0.00"/>
        <vehicle id="background.2" x="61.01" y="-1.60" angle="90.00" type="human" speed="12.23" pos="61.01" lane="e0_0" slope="0.00"/>
    </timestep>
    <timestep time="67.00">
        <vehicle id="background.1" x="159.94" y="-1.60" angle="90.00" type="human" speed="12.30" pos="159.94" lane="e0_0" slope="0.00"/>
        <vehicle id="background.2" x="67.25" y="-1.60" angle="90.00" type="human" speed="12.48" pos="67.25" lane="e0_0" slope="0.00"/>
    </timestep>
    <timestep time="67.50">
        <vehicle id="background.1" x="166.18" y="-1.60" angle="90.00" type="human" speed="12.47" pos="166.18" lane="e0_0" slope="0.00"/>
        <vehicle id="background.2" x="73.49" y="-1.60" angle="90.00" type="human" speed="12.48" pos="73.49" lane="e0_0" slope="0.00"/>
    </timestep>
    <timestep time="68.00">
        <vehicle id="background.1" x="172.47" y="-1.60" angle="90.00" type="human" speed="12.57" pos="172.47" lane="e0_0" slope="0.00"/>
        <vehicle id="background.2" x="79.64" y="-1.60" angle="90.00" type="human" speed="12.30" pos="79.64" lane="e0_0" slope="0.00"/>
    </timestep>
    <timestep time="68.50">
        <vehicle id="background.1" x="178.65" y="-1.60" angle="90.00" type="human" speed="12.37" pos="178.65" lane="e0_0" slope="0.00"/>
        <vehicle id="background.2" x="85.79" y="-1.60" angle="90.00" type="human" speed="12.29" pos="85.79" lane="e0_0" slope="0.00"/>
    </timestep>
    <timestep time="69.00">
        <vehicle id="background.1" x="184.83" y="-1.60" angle="90.00" type="human" speed="12.35" pos="184.83" lane="e0_0" slope="0.00"/>
        <vehicle id="background.2" x="92.08" y="-1.60" angle="90.00" type="human" speed="12.58" pos="92.08" lane="e0_0" slope="0.00"/>
    </timestep>
    <timestep time="69.50">
        <vehicle id="background.1" x="191.02" y="-1.60" angle="90.00" type="human" speed="12.40" pos="191.02" lane="e0_0" slope="0.00"/>
        <vehicle id="background.2" x="98.39" y="-1.60" angle="90.00" type="human" speed="12.63" pos="98.39" lane="e0_0" slope="0.00"/>
    </timestep>
    <timestep time="70.00">
        <vehicle id="background.1" x="197.28" y="-1.60" angle="90.00" type="human" speed="12.51" pos="197.28" lane="e0_0" slope="0.00"/>
        <vehicle id="background.2" x="104.62" y="-1.60" angle="90.00" type="human" speed="12.45" pos="104.62" lane="e0_0" slope="0.00"/>
    </timestep>
    <timestep time="70.50">
        <vehicle id="background.1" x="203.39" y="-1.60" angle="90.00" type="human" speed="12.22" pos="203.39" lane="e0_0" slope="0.00"/>
        <vehicle id="background.2" x="110.72" y="-1.60" angle="90.00" type="human" speed="12.22" pos="110.72" lane="e0_0" slope="0.00"/>
    </timestep>
    <timestep time="71.00">
        <vehicle id="background.1" x="209.65" y="-1.60" angle="90.00" type="human" speed="12.52" pos="209.65" lane="e0_0" slope="0.00"/>
        <vehicle id="background.2" x="116.98" y="-1.60" angle="90.00" type="human" speed="12.51" pos="116.98" lane="e0_0" slope="0.00"/>
    </timestep>
    <timestep time="71.50">
        <vehicle id="background.1" x="215.87" y="-1.60" angle="90.00" type="human" speed="12.45" pos="215.87" lane="e0_0" slope="0.00"/>
        <vehicle id="background.2" x="123.13" y="-1.60" angle="90.00" type="human" speed="12.30" pos="123.13" lane="e0_0" slope="0.00"/>
    </timestep>
    <timestep time="72.00">
        <vehicle id="background.1" x="221.99" y="-1.60" angle="90.00" type="human" speed="12.24" pos="221.99" lane="e0_0" slope="0.00"/>
        <vehicle id="background.2" x="129.24" y="-1.60" angle="90.00" type="human" speed="12.22" pos="129.24" lane="e0_0" slope="0.00"/>
    </timestep>
    <timestep time="72.50">
        <vehicle id="background.1" x="228.32" y="-1.60" angle="90.00" type="human" speed="12.66" pos="228.32" lane="e0_0" slope="0.00"/>
        <vehicle id="background.2" x="135.40" y="-1.60" angle="90.00" type="human" speed="12.32" pos="135.40" lane="e0_0" slope="0.00"/>
    </timestep>
    <timestep time="73.00">
        <vehicle id="background.1" x="234.62" y="-1.60" angle="90.00" type="human" speed="12.60" pos="234.62" lane="e0_0" slope="0.00"/>
        <vehicle id="background.2" x="141.64" y="-1.60" angle="90.00" type="human" speed="12.49" pos="141.64" lane="e0_0" slope="0.00"/>
    </timestep>
    <timestep time="73.50">
        <vehicle id="background.1" x="240.87" y="-1.60" angle="90.00" type="human" speed="12.50" pos="240.87" lane="e0_0" slope="0.00"/>
        <vehicle id="background.2" x="147.88" y="-1.60" angle="90.00" type="human" speed="12.48" pos="147.88" lane="e0_0" slope="0.00"/>
    </timestep>
    <timestep time="74.00">
        <vehicle id="background.1" x="247.01" y="-1.60" angle="90.00" type="human" speed="12.29" pos="247.01" lane="e0_0" slope="0.00"/>
        <vehicle id="background.2" x="154.10" y="-1.60" angle="90.00" type="human" speed="12.43" pos="154.10" lane="e0_0" slope="0.00"/>
    </timestep>
    <timestep time="74.50">
        <vehicle id="background.1" x="253.26" y="-1.60" angle="90.00" type="human" speed="12.49" pos="253.26" lane="e0_0" slope="0.00"/>
        <vehicle id="background.2" x="160.35" y="-1.60" angle="90.00" type="human" speed="12.50" pos="160.35" lane="e0_0" slope="0.00"/>
    </timestep>
    <timestep time="75.00">
        <vehicle id="background.1" x="259.57" y="-1.60" angle="90.00" type="human" speed="12.63" pos="259.57" lane="e0_0" slope="0.00"/>
        <vehicle id="background.2" x="166.53" y="-1.60" angle="90.00" type="human" speed="12.35" pos="166.53" lane="e0_0" slope="0.00"/>
    </timestep>
    <timestep time="75.50">
        <vehicle id="background.1" x="265.67" y="-1.60" angle="90.00" type="human" speed="12.19" pos="265.67" lane="e0_0" slope="0.00"/>
        <vehicle id="background.2" x="172.63" y="-1.60" angle="90.00" type="human" speed="12.20" pos="172.63" lane="e0_0" slope="0.00"/>
    </timestep>
    <timestep time="76.00">
        <vehicle id="background.1" x="271.99" y="-1.60" angle="90.00" type="human" speed="12.64" pos="271.99" lane="e0_0" slope="0.00"/>
        <vehicle id="background.2" x="178.73" y="-1.60" angle="90.00" type="human" speed="12.20" pos="178.73" lane="e0_0" slope="0.00"/>
        <vehicle id="background.3" x="5.10" y="-1.60" angle="90.00" type="human" speed="13.05" pos="5.10" lane="e0_0" slope="0.00"/>
    </timestep>
    <timestep time="76.50">
        <vehicle id="background.1" x="278.10" y="-1.60" angle="90.00" type="human" speed="12.22" pos="278.10" lane="e0_0" slope="0.00"/>
        <vehicle id="background.2" x="184.92" y="-1.60" angle="90.00" type="human" speed="12.38" pos="184.92" lane="e0_0" slope="0.00"/>
        <vehicle id="background.3" x="11.57" y="-1.60" angle="90.00" type="human" speed="12.95" pos="11.57" lane="e0_0" slope="0.00"/>
    </timestep>
    <timestep time="77.00">
        <vehicle id="background.1" x="284.21" y="-1.60" angle="90.00" type="human" speed="12.21" pos="284.21" lane="e0_0" slope="0.00"/>
        <vehicle id="background.2" x="191.15" y="-1.60" angle="90.00" type="human" speed="12.47" pos="191.15" lane="e0_0" slope="0.00"/>
        <vehicle id="background.3" x="17.88" y="-1.60" angle="90.00" type="human" speed="12.60" pos="17.88" lane="e0_0" slope="0.00"/>
    </timestep>
    <timestep time="77.50">
        <vehicle id="background.1" x="289.37" y="-1.60" angle="90.00" type="human" speed="10.33" pos="289.37" lane="e0_0" slope="0.00"/>
        <vehicle id="background.2" x="197.23" y="-1.60" angle="90.00" type="human" speed="12.15" pos="197.23" lane="e0_0" slope="0.00"/>
        <vehicle id="background.3" x="24.18" y="-1.60" angle="90.00" type="human" speed="12.60" pos="24.18" lane="e0_0" slope="0.00"/>
    </timestep>
    <timestep time="78.00">
        <vehicle id="background.1" x="293.46" y="-1.60" angle="90.00" type="human" speed="8.17" pos="293.46" lane="e0_0" slope="0.00"/>
        <vehicle id="background.2" x="203.33" y="-1.60" angle="90.00" type="human" speed="12.20" pos="203.33" lane="e0_0" slope="0.00"/>
        <vehicle id="background.3" x="30.54" y="-1.60" angle="90.00" type="human" speed="12.74" pos="30.54" lane="e0_0" slope="0.00"/>
    </timestep>
    <timestep time="78.50">
        <vehicle id="background.1" x="296.42" y="-1.60" angle="90.00" type="human" speed="5.92" pos="296.42" lane="e0_0" slope="0.00"/>
        <vehicle id="background.2" x="209.62" y="-1.60" angle="90.00" type="human" speed="12.59" pos="209.62" lane="e0_0" slope="0.00"/>
        <vehicle id="background.3" x="37.04" y="-1.60" angle="90.00" type="human" speed="13.00" pos="37.04" lane="e0_0" slope="0.00"/>
    </timestep>
    <timestep time="79.00">
        <vehicle id="background.1" x="298.26" y="-1.60" angle="90.00" type="human" speed="3.67" pos="298.26" lane="e0_0" slope="0.00"/>
        <vehicle id="background.2" x="215.91" y="-1.60" angle="90.00" type="human" speed="12.58" pos="215.91" lane="e0_0" slope="0.00"/>
        <vehicle id="background.3" x="43.44" y="-1.60" angle="90.00" type="human" speed="12.79" pos="43.44" lane="e0_0" slope="0.00"/>
    </timestep>
    <timestep time="79.50">
        <vehicle id="background.1" x="298.97" y="-1.60" angle="90.00" type="human" speed="1.42" pos="298.97" lane="e0_0" slope="0.00"/>
        <vehicle id="background.2" x="222.21" y="-1.60" angle="90.00" type="human" speed="12.59" pos="222.21" lane="e0_0" slope="0.00"/>
        <vehicle id="background.3" x="49.86" y="-1.60" angle="90.00" type="human" speed="12.85" pos="49.86" lane="e0_0" slope="0.00"/>
    </timestep>
    <timestep time="80.00">
        <vehicle id="background.1" x="299.00" y="-1.60" angle="90.00" type="human" speed="0.05" pos="299.00" lane="e0_0" slope="0.00"/>
        <vehicle id="background.2" x="228.45" y="-1.60" angle="90.00" type="human" speed="12.49" pos="228.45" lane="e0_0" slope="0.00"/>
        <vehicle id="background.3" x="56.22" y="-1.60" angle="90.00" type="human" speed="12.72" pos="56.22" lane="e0_0" slope="0.00"/>
    </timestep>
    <timestep time="80.50">
        <vehicle id="background.1" x="299.00" y="-1.60" angle="90.00" type="human" speed="0.01" pos="299.00" lane="e0_0" slope="0.00"/>
        <vehicle id="background.2" x="234.67" y="-1.60" angle="90.00" type="human" speed="12.45" pos="234.67" lane="e0_0" slope="0.00"/>
        <vehicle id="background.3" x="62.57" y="-1.60" angle="90.00" type="human" speed="12.69" pos="62.57" lane="e0_0" slope="0.00"/>
    </timestep>
    <timestep time="81.00">
        <vehicle id="background.1" x="299.00" y="-1.60" angle="90.00" type="human" speed="0.00" pos="299.00" lane="e0_0" slope="0.00"/>
        <vehicle id="background.2" x="240.92" y="-1.60" angle="90.00" type="human" speed="12.49" pos="240.92" lane="e0_0" slope="0.00"/>
        <vehicle id="background.3" x="68.85" y="-1.60" angle="90.00" type="human" speed="12.57" pos="68.85" lane="e0_0" slope="0.00"/>
    </timestep>
    <timestep time="81.50">
        <vehicle id="background.1" x="299.00" y="-1.60" angle="90.00" type="human" speed="0.00" pos="299.00" lane="e0_0" slope="0.00"/>
        <vehicle id="background.2" x="247.04" y="-1.60" angle="90.00" type="human" speed="12.24" pos="247.04" lane="e0_0" slope="0.00"/>
        <vehicle id="background.3" x="75.29" y="-1.60" angle="90.00" type="human" speed="12.88" pos="75.29" lane="e0_0" slope="0.00"/>
    </timestep>
    <timestep time="82.00">
        <vehicle id="background.1" x="299.00" y="-1.60" angle="90.00" type="human" speed="0.00" pos="299.00" lane="e0_0" slope="0.00"/>
        <vehicle id="background.2" x="253.21" y="-1.60" angle="90.00" type="human" speed="12.34" pos="253.21" lane="e0_0" slope="0.00"/>
        <vehicle id="background.3" x="81.59" y="-1.60" angle="90.00" type="human" speed="12.60" pos="81.59" lane="e0_0" slope="0.00"/>
        <vehicle id="ego" x="5.10" y="-1.60" angle="90.00" type="ego_type" speed="0.00" pos="5.10" lane="e0_0" slope="0.00"/>
    </timestep>
    <timestep time="82.50">