<?xml version="1.0" encoding="UTF-8"?>

<!-- generated on 2026-05-15 22:32:44 by Eclipse SUMO sumo Version 1.24.0
<sumoConfiguration xmlns:xsi="http://www.w3.org/2001/XMLSchema-instance" xsi:noNamespaceSchemaLocation="http://sumo.dlr.de/xsd/sumoConfiguration.xsd">

    <input>
        <net-file value="scenarios/simple_arterial/simple_arterial.net.xml"/>
        <route-files value="scenarios/simple_arterial/simple_arterial.rou.xml"/>
        <additional-files value="scenarios/simple_arterial/simple_arterial.tls.xml"/>
    </input>

    <output>
        <fcd-output value="runs/fcd_rlhf/episode_00005_seed_44.fcd.xml"/>
    </output>

    <time>
        <begin value="0"/>
        <end value="900"/>
        <step-length value="0.5"/>
    </time>

    <report>
        <no-warnings value="true"/>
    </report>

    <traci_server>
        <remote-port value="22606"/>
    </traci_server>

    <random_number>
        <seed value="44"/>
    </random_number>

</sumoConfiguration>
-->

<fcd-export xmlns:xsi="http://www.w3.org/2001/XMLSchema-instance" xsi:noNamespaceSchemaLocation="http://sumo.dlr.de/xsd/fcd_file.xsd">
    <timestep time="0.00"/>
    <timestep time="0.50"/>
    <timestep time="1.00"/>
    <timestep time="1.50"/>
    <timestep time="2.00"/>
    <timestep time="2.50"/>
    <timestep time="3.00"/>
    <timestep time="3.50"/>
    <timestep time="4.00"/>
    <timestep time="4.50"/>
    <timestep time="5.00"/>
    <timestep time="5.50"/>
    <timestep time="6.00"/>
    <timestep time="6.50"/>
    <timestep time="7.00"/>
    <timestep time="7.50"/>
    <timestep time="8.00"/>
    <timestep time="8.50"/>
    <timestep time="9.00"/>
    <timestep time="9.50"/>
    <timestep time="10.00"/>
    <timestep time="10.50"/>
    <timestep time="11.00"/>
    <timestep time="11.50">
        <vehicle id="ego" x="5.10" y="-1.60" angle="90.00" type="ego_type" speed="3.36" pos="5.10" lane="e0_0" slope="0.00"/>
    </timestep>
    <timestep time="12.00">
        <vehicle id="ego" x="6.53" y="-1.60" angle="90.00" type="ego_type" speed="2.86" pos="6.53" lane="e0_0" slope="0.00"/>
    </timestep>
    <timestep time="12.50">
        <vehicle id="ego" x="7.96" y="-1.60" angle="90.00" type="ego_type" speed="2.86" pos="7.96" lane="e0_0" slope="0.00"/>
    </timestep>
    <timestep time="13.00">
        <vehicle id="ego" x="9.13" y="-1.60" angle="90.00" type="ego_type" speed="2.36" pos="9.13" lane="e0_0" slope="0.00"/>
    </timestep>
    <timestep time="13.50">
        <vehicle id="ego" x="10.69" y="-1.60" angle="90.00" type="ego_type" speed="3.11" pos="10.69" lane="e0_0" slope="0.00"/>
    </timestep>
    <timestep time="14.00">
        <vehicle id="ego" x="11.61" y="-1.60" angle="90.00" type="ego_type" speed="1.86" pos="11.61" lane="e0_0" slope="0.00"/>
    </timestep>
    <timestep time="14.50">
        <vehicle id="ego" x="13.04" y="-1.60" angle="90.00" type="ego_type" speed="2.86" pos="13.04" lane="e0_0" slope="0.00"/>
    </timestep>
    <timestep time="15.00">
        <vehicle id="ego" x="14.34" y="-1.60" angle="90.00" type="ego_type" speed="2.61" pos="14.34" lane="e0_0" slope="0.00"/>
    </timestep>
    <timestep time="15.50">
        <vehicle id="ego" x="15.52" y="-1.60" angle="90.00" type="ego_type" speed="2.36" pos="15.52" lane="e0_0" slope="0.00"/>
    </timestep>
    <timestep time="16.00">
        <vehicle id="ego" x="16.20" y="-1.60" angle="90.00" type="ego_type" speed="1.36" pos="16.20" lane="e0_0" slope="0.00"/>
    </timestep>
    <timestep time="16.50">
        <vehicle id="ego" x="17.00" y="-1.60" angle="90.00" type="ego_type" speed="1.61" pos="17.00" lane="e0_0" slope="0.00"/>
    </timestep>
    <timestep time="17.00">
        <vehicle id="ego" x="17.81" y="-1.60" angle="90.00" type="ego_type" speed="1.61" pos="17.81" lane="e0_0" slope="0.00"/>
    </timestep>
    <timestep time="17.50">
        <vehicle id="ego" x="18.23" y="-1.60" angle="90.00" type="ego_type" speed="0.86" pos="18.23" lane="e0_0" slope="0.00"/>
    </timestep>
    <timestep time="18.00">
        <vehicle id="ego" x="18.79" y="-1.60" angle="90.00" type="ego_type" speed="1.11" pos="18.79" lane="e0_0" slope="0.00"/>
    </timestep>
    <timestep time="18.50">
        <vehicle id="ego" x="19.59" y="-1.60" angle="90.00" type="ego_type" speed="1.61" pos="19.59" lane="e0_0" slope="0.00"/>
    </timestep>
    <timestep time="19.00">
        <vehicle id="ego" x="19.89" y="-1.60" angle="90.00" type="ego_type" speed="0.61" pos="19.89" lane="e0_0" slope="0.00"/>
    </timestep>
    <timestep time="19.50">
        <vehicle id="ego" x="19.94" y="-1.60" angle="90.00" type="ego_type" speed="0.11" pos="19.94" lane="e0_0" slope="0.00"/>
    </timestep>
    <timestep time="20.00">
        <vehicle id="ego" x="20.25" y="-1.60" angle="90.00" type="ego_type" speed="0.61" pos="20.25" lane="e0_0" slope="0.00"/>
    </timestep>
    <timestep time="20.50">
        <vehicle id="background.0" x="5.10" y="-1.60" angle="90.00" type="human" speed="4.93" pos="5.10" lane="e0_0" slope="0.00"/>
        <vehicle id="ego" x="20.42" y="-1.60" angle="90.00" type="ego_type" speed="0.36" pos="20.42" lane="e0_0" slope="0.00"/>
    </timestep>
    <timestep time="21.00">
        <vehicle id="background.0" x="7.51" y="-1.60" angle="90.00" type="human" speed="4.82" pos="7.51" lane="e0_0" slope="0.00"/>
        <vehicle id="ego" x="21.10" y="-1.60" angle="90.00" type="ego_type" speed="1.36" pos="21.10" lane="e0_0" slope="0.00"/>
    </timestep>
    <timestep time="21.50">
        <vehicle id="background.0" x="9.52" y="-1.60" angle="90.00" type="human" speed="4.01" pos="9.52" lane="e0_0" slope="0.00"/>
        <vehicle id="ego" x="21.90" y="-1.60" angle="90.00" type="ego_type" speed="1.61" pos="21.90" lane="e0_0" slope="0.00"/>
    </timestep>
    <timestep time="22.00">
        <vehicle id="background.0" x="11.08" y="-1.60" angle="90.00" type="human" speed="3.13" pos="11.08" lane="e0_0" slope="0.00"/>
        <vehicle id="ego" x="23.08" y="-1.60" angle="90.00" type="ego_type" speed="2.36" pos="23.08" lane="e0_0" slope="0.00"/>
    </timestep>
    <timestep time="22.50">
        <vehicle id="background.0" x="12.72" y="-1.60" angle="90.00" type="human" speed="3.28" pos="12.72" lane="e0_0" slope="0.00"/>
        <vehicle id="ego" x="23.89" y="-1.60" angle="90.00" type="ego_type" speed="1.61" pos="23.89" lane="e0_0" slope="0.00"/>
    </timestep>
    <timestep time="23.00">
        <vehicle id="background.0" x="14.01" y="-1.60" angle="90.00" type="human" speed="2.57" pos="14.01" lane="e0_0" slope="0.00"/>
        <vehicle id="ego" x="24.81" y="-1.60" angle="90.00" type="ego_type" speed="1.86" pos="24.81" lane="e0_0" slope="0.00"/>
    </timestep>
    <timestep time="23.50">
        <vehicle id="background.0" x="15.21" y="-1.60" angle="90.00" type="human" speed="2.41" pos="15.21" lane="e0_0" slope="0.00"/>
        <vehicle id="ego" x="25.49" y="-1.60" angle="90.00" type="ego_type" speed="1.36" pos="25.49" lane="e0_0" slope="0.00"/>
    </timestep>
    <timestep time="24.00">
        <vehicle id="background.0" x="16.33" y="-1.60" angle="90.00" type="human" speed="2.23" pos="16.33" lane="e0_0" slope="0.00"/>
        <vehicle id="ego" x="26.04" y="-1.60" angle="90.00" type="ego_type" speed="1.11" pos="26.04" lane="e0_0" slope="0.00"/>
    </timestep>
    <timestep time="24.50">
        <vehicle id="background.0" x="17.18" y="-1.60" angle="90.00" type="human" speed="1.69" pos="17.18" lane="e0_0" slope="0.00"/>
        <vehicle id="ego" x="26.72" y="-1.60" angle="90.00" type="ego_type" speed="1.36" pos="26.72" lane="e0_0" slope="0.00"/>
    </timestep>
    <timestep time="25.00">
        <vehicle id="background.0" x="17.96" y="-1.60" angle="90.00" type="human" speed="1.57" pos="17.96" lane="e0_0" slope="0.00"/>
        <vehicle id="ego" x="27.40" y="-1.60" angle="90.00" type="ego_type" speed="1.36" pos="27.40" lane="e0_0" slope="0.00"/>
    </timestep>
    <timestep time="25.50">
        <vehicle id="background.0" x="18.85" y="-1.60" angle="90.00" type="human" speed="1.79" pos="18.85" lane="e0_0" slope="0.00"/>
        <vehicle id="ego" x="27.95" y="-1.60" angle="90.00" type="ego_type" speed="1.11" pos="27.95" lane="e0_0" slope="0.00"/>
    </timestep>
    <timestep time="26.00">
        <vehicle id="background.0" x="19.51" y="-1.60" angle="90.00" type="human" speed="1.31" pos="19.51" lane="e0_0" slope="0.00"/>
        <vehicle id="ego" x="29.00" y="-1.60" angle="90.00" type="ego_type" speed="2.11" pos="29.00" lane="e0_0" slope="0.00"/>
    </timestep>
    <timestep time="26.50">
        <vehicle id="background.0" x="20.39" y="-1.60" angle="90.00" type="human" speed="1.75" pos="20.39" lane="e0_0" slope="0.00"/>
        <vehicle id="ego" x="30.06" y="-1.60" angle="90.00" type="ego_type" speed="2.11" pos="30.06" lane="e0_0" slope="0.00"/>
    </timestep>
    <timestep time="27.00">
        <vehicle id="background.0" x="21.23" y="-1.60" angle="90.00" type="human" speed="1.69" pos="21.23" lane="e0_0" slope="0.00"/>
        <vehicle id="ego" x="31.23" y="-1.60" angle="90.00" type="ego_type" speed="2.36" pos="31.23" lane="e0_0" slope="0.00"/>
    </timestep>
    <timestep time="27.50">
        <vehicle id="background.0" x="22.41" y="-1.60" angle="90.00" type="human" speed="2.36" pos="22.41" lane="e0_0" slope="0.00"/>
        <vehicle id="ego" x="32.04" y="-1.60" angle="90.00" type="ego_type" speed="1.61" pos="32.04" lane="e0_0" slope="0.00"/>
    </timestep>
    <timestep time="28.00">
        <vehicle id="background.0" x="23.37" y="-1.60" angle="90.00" type="human" speed="1.92" pos="23.37" lane="e0_0" slope="0.00"/>
        <vehicle id="ego" x="32.84" y="-1.60" angle="90.00" type="ego_type" speed="1.61" pos="32.84" lane="e0_0" slope="0.00"/>
    </timestep>
    <timestep time="28.50">
        <vehicle id="background.0" x="24.24" y="-1.60" angle="90.00" type="human" speed="1.73" pos="24.24" lane="e0_0" slope="0.00"/>
        <vehicle id="ego" x="33.52" y="-1.60" angle="90.00" type="ego_type" speed="1.36" pos="33.52" lane="e0_0" slope="0.00"/>
    </timestep>
    <timestep time="29.00">
        <vehicle id="background.0" x="25.08" y="-1.60" angle="90.00" type="human" speed="1.68" pos="25.08" lane="e0_0" slope="0.00"/>
        <vehicle id="ego" x="34.57" y="-1.60" angle="90.00" type="ego_type" speed="2.11" pos="34.57" lane="e0_0" slope="0.00"/>
    </timestep>
    <timestep time="29.50">
        <vehicle id="background.0" x="25.85" y="-1.60" angle="90.00" type="human" speed="1.55" pos="25.85" lane="e0_0" slope="0.00"/>
        <vehicle id="ego" x="36.12" y="-1.60" angle="90.00" type="ego_type" speed="3.11" pos="36.12" lane="e0_0" slope="0.00"/>
    </timestep>
    <timestep time="30.00">
        <vehicle id="background.0" x="26.92" y="-1.60" angle="90.00" type="human" speed="2.13" pos="26.92" lane="e0_0" slope="0.00"/>
        <vehicle id="ego" x="37.93" y="-1.60" angle="90.00" type="ego_type" speed="3.61" pos="37.93" lane="e0_0" slope="0.00"/>
    </timestep>
    <timestep time="30.50">
        <vehicle id="background.0" x="28.30" y="-1.60" angle="90.00" type="human" speed="2.77" pos="28.30" lane="e0_0" slope="0.00"/>
        <vehicle id="ego" x="38.98" y="-1.60" angle="90.00" type="ego_type" speed="2.11" pos="38.98" lane="e0_0" slope="0.00"/>
    </timestep>
    <timestep time="31.00">
        <vehicle id="background.0" x="29.67" y="-1.60" angle="90.00" type="human" speed="2.74" pos="29.67" lane="e0_0" slope="0.00"/>
        <vehicle id="ego" x="39.53" y="-1.60" angle="90.00" type="ego_type" speed="1.11" pos="39.53" lane="e0_0" slope="0.00"/>
    </timestep>
    <timestep time="31.50">
        <vehicle id="background.0" x="30.51" y="-1.60" angle="90.00" type="human" speed="1.68" pos="30.51" lane="e0_0" slope="0.00"/>
        <vehicle id="ego" x="40.58" y="-1.60" angle="90.00" type="ego_type" speed="2.11" pos="40.58" lane="e0_0" slope="0.00"/>
    </timestep>
    <timestep time="32.00">
        <vehicle id="background.0" x="31.62" y="-1.60" angle="90.00" type="human" speed="2.22" pos="31.62" lane="e0_0" slope="0.00"/>
        <vehicle id="ego" x="41.51" y="-1.60" angle="90.00" type="ego_type" speed="1.86" pos="41.51" lane="e0_0" slope="0.00"/>
    </timestep>
    <timestep time="32.50">
        <vehicle id="background.0" x="32.48" y="-1.60" angle="90.00" type="human" speed="1.73" pos="32.48" lane="e0_0" slope="0.00"/>
        <vehicle id="ego" x="42.19" y="-1.60" angle="90.00" type="ego_type" speed="1.36" pos="42.19" lane="e0_0" slope="0.00"/>
    </timestep>
    <timestep time="33.00">
        <vehicle id="background.0" x="33.41" y="-1.60" angle="90.00" type="human" speed="1.86" pos="33.41" lane="e0_0" slope="0.00"/>
        <vehicle id="ego" x="42.37" y="-1.60" angle="90.00" type="ego_type" speed="0.36" pos="42.37" lane="e0_0" slope="0.00"/>
    </timestep>
    <timestep time="33.50">
        <vehicle id="background.0" x="34.04" y="-1.60" angle="90.00" type="human" speed="1.25" pos="34.04" lane="e0_0" slope="0.00"/>
        <vehicle id="ego" x="42.67" y="-1.60" angle="90.00" type="ego_type" speed="0.61" pos="42.67" lane="e0_0" slope="0.00"/>
    </timestep>
    <timestep time="34.00">
        <vehicle id="background.0" x="34.47" y="-1.60" angle="90.00" type="human" speed="0.86" pos="34.47" lane="e0_0" slope="0.00"/>
        <vehicle id="ego" x="43.47" y="-1.60" angle="90.00" type="ego_type" speed="1.61" pos="43.47" lane="e0_0" slope="0.00"/>
    </timestep>
    <timestep time="34.50">
        <vehicle id="background.0" x="35.19" y="-1.60" angle="90.00" type="human" speed="1.45" pos="35.19" lane="e0_0" slope="0.00"/>
        <vehicle id="ego" x="43.78" y="-1.60" angle="90.00" type="ego_type" speed="0.61" pos="43.78" lane="e0_0" slope="0.00"/>
    </timestep>
    <timestep time="35.00">
        <vehicle id="background.0" x="35.62" y="-1.60" angle="90.00" type="human" speed="0.85" pos="35.62" lane="e0_0" slope="0.00"/>
        <vehicle id="ego" x="44.20" y="-1.60" angle="90.00" type="ego_type" speed="0.86" pos="44.20" lane="e0_0" slope="0.00"/>
    </timestep>
    <timestep time="35.50">
        <vehicle id="background.0" x="36.11" y="-1.60" angle="90.00" type="human" speed="0.98" pos="36.11" lane="e0_0" slope="0.00"/>
        <vehicle id="ego" x="44.51" y="-1.60" angle="90.00" type="ego_type" speed="0.61" pos="44.51" lane="e0_0" slope="0.00"/>
    </timestep>
    <timestep time="36.00">
        <vehicle id="background.0" x="36.47" y="-1.60" angle="90.00" type="human" speed="0.72" pos="36.47" lane="e0_0" slope="0.00"/>
        <vehicle id="ego" x="44.56" y="-1.60" angle="90.00" type="ego_type" speed="0.11" pos="44.56" lane="e0_0" slope="0.00"/>
    </timestep>
    <timestep time="36.50">
        <vehicle id="background.0" x="36.72" y="-1.60" angle="90.00" type="human" speed="0.51" pos="36.72" lane="e0_0" slope="0.00"/>
        <vehicle id="ego" x="44.74" y="-1.60" angle="90.00" type="ego_type" speed="0.36" pos="44.74" lane="e0_0" slope="0.00"/>
    </timestep>
    <timestep time="37.00">
        <vehicle id="background.0" x="36.95" y="-1.60" angle="90.00" type="human" speed="0.46" pos="36.95" lane="e0_0" slope="0.00"/>
        <vehicle id="ego" x="45.16" y="-1.60" angle="90.00" type="ego_type" speed="0.86" pos="45.16" lane="e0_0" slope="0.00"/>
    </timestep>
    <timestep time="37.50">
        <vehicle id="background.0" x="37.30" y="-1.60" angle="90.00" type="human" speed="0.69" pos="37.30" lane="e0_0" slope="0.00"/>
        <vehicle id="ego" x="45.72" y="-1.60" angle="90.00" type="ego_type" speed="1.11" pos="45.72" lane="e0_0" slope="0.00"/>
    </timestep>
    <timestep time="38.00">
        <vehicle id="background.0" x="37.75" y="-1.60" angle="90.00" type="human" speed="0.92" pos="37.75" lane="e0_0" slope="0.00"/>
        <vehicle id="ego" x="46.02" y="-1.60" angle="90.00" type="ego_type" speed="0.61" pos="46.02" lane="e0_0" slope="0.00"/>
    </timestep>
    <timestep time="38.50">
        <vehicle id="background.0" x="38.12" y="-1.60" angle="90.00" type="human" speed="0.73" pos="38.12" lane="e0_0" slope="0.00"/>
        <vehicle id="ego" x="46.82" y="-1.60" angle="90.00" type="ego_type" speed="1.61" pos="46.82" lane="e0_0" slope="0.00"/>
    </timestep>
    <timestep time="39.00">
        <vehicle id="background.0" x="38.62" y="-1.60" angle="90.00" type="human" speed="1.00" pos="38.62" lane="e0_0" slope="0.00"/>
        <vehicle id="ego" x="48.13" y="-1.60" angle="90.00" type="ego_type" speed="2.61" pos="48.13" lane="e0_0" slope="0.00"/>
    </timestep>
    <timestep time="39.50">
        <vehicle id="background.0" x="39.42" y="-1.60" angle="90.00" type="human" speed="1.60" pos="39.42" lane="e0_0" slope="0.00"/>
        <vehicle id="ego" x="49.30" y="-1.60" angle="90.00" type="ego_type" speed="2.36" pos="49.30" lane="e0_0" slope="0.00"/>
    </timestep>
    <timestep time="40.00">
        <vehicle id="background.0" x="40.36" y="-1.60" angle="90.00" type="human" speed="1.89" pos="40.36" lane="e0_0" slope="0.00"/>
        <vehicle id="ego" x="50.61" y="-1.60" angle="90.00" type="ego_type" speed="2.61" pos="50.61" lane="e0_0" slope="0.00"/>
    </timestep>
    <timestep time="40.50">
        <vehicle id="background.0" x="41.64" y="-1.60" angle="90.00" type="human" speed="2.56" pos="41.64" lane="e0_0" slope="0.00"/>
        <vehicle id="ego" x="52.28" y="-1.60" angle="90.00" type="ego_type" speed="3.36" pos="52.28" lane="e0_0" slope="0.00"/>
    </timestep>
    <timestep time="41.00">
        <vehicle id="background.0" x="43.10" y="-1.60" angle="90.00" type="human" speed="2.91" pos="43.10" lane="e0_0" slope="0.00"/>
        <vehicle id="ego" x="53.34" y="-1.60" angle="90.00" type="ego_type" speed="2.11" pos="53.34" lane="e0_0" slope="0.00"/>
    </timestep>
    <timestep time="41.50">
        <vehicle id="background.0" x="44.21" y="-1.60" angle="90.00" type="human" speed="2.23" pos="44.21" lane="e0_0" slope="0.00"/>
        <vehicle id="ego" x="54.26" y="-1.60" angle="90.00" type="ego_type" speed="1.86" pos="54.26" lane="e0_0" slope="0.00"/>
    </timestep>
    <timestep time="42.00">
        <vehicle id="background.0" x="45.36" y="-1.60" angle="90.00" type="human" speed="2.29" pos="45.36" lane="e0_0" slope="0.00"/>
        <vehicle id="ego" x="55.19" y="-1.60" angle="90.00" type="ego_type" speed="1.86" pos="55.19" lane="e0_0" slope="0.00"/>
    </timestep>
    <timestep time="42.50">
        <vehicle id="background.0" x="46.26" y="-1.60" angle="90.00" type="human" speed="1.82" pos="46.26" lane="e0_0" slope="0.00"/>
        <vehicle id="ego" x="55.99" y="-1.60" angle="90.00" type="ego_type" speed="1.61" pos="55.99" lane="e0_0" slope="0.00"/>
    </timestep>
    <timestep time="43.00">
        <vehicle id="background.0" x="47.18" y="-1.60" angle="90.00" type="human" speed="1.83" pos="47.18" lane="e0_0" slope="0.00"/>
        <vehicle id="ego" x="57.05" y="-1.60" angle="90.00" type="ego_type" speed="2.11" pos="57.05" lane="e0_0" slope="0.00"/>
    </timestep>
    <timestep time="43.50">
        <vehicle id="background.0" x="48.27" y="-1.60" angle="90.00" type="human" speed="2.17" pos="48.27" lane="e0_0" slope="0.00"/>
        <vehicle id="ego" x="58.60" y="-1.60" angle="90.00" type="ego_type" speed="3.11" pos="58.60" lane="e0_0" slope="0.00"/>
    </timestep>
    <timestep time="44.00">
        <vehicle id="background.0" x="49.63" y="-1.60" angle="90.00" type="human" speed="2.73" pos="49.63" lane="e0_0" slope="0.00"/>
        <vehicle id="ego" x="59.40" y="-1.60" angle="90.00" type="ego_type" speed="1.61" pos="59.40" lane="e0_0" slope="0.00"/>
    </timestep>
    <timestep time="44.50">
        <vehicle id="background.0" x="50.65" y="-1.60" angle="90.00" type="human" speed="2.04" pos="50.65" lane="e0_0" slope="0.00"/>
        <vehicle id="ego" x="59.46" y="-1.60" angle="90.00" type="ego_type" speed="0.11" pos="59.46" lane="e0_0" slope="0.00"/>
    </timestep>
    <timestep time="45.00">
        <vehicle id="background.0" x="51.15" y="-1.60" angle="90.00" type="human" speed="1.01" pos="51.15" lane="e0_0" slope="0.00"/>
        <vehicle id="ego" x="59.63" y="-1.60" angle="90.00" type="ego_type" speed="0.36" pos="59.63" lane="e0_0" slope="0.00"/>
    </timestep>
    <timestep time="45.50">
        <vehicle id="background.0" x="51.57" y="-1.60" angle="90.00" type="human" speed="0.85" pos="51.57" lane="e0_0" slope="0.00"/>
        <vehicle id="ego" x="59.94" y="-1.60" angle="90.00" type="ego_type" speed="0.61" pos="59.94" lane="e0_0" slope="0.00"/>
    </timestep>
    <timestep time="46.00">
        <vehicle id="background.0" x="51.92" y="-1.60" angle="90.00" type="human" speed="0.70" pos="51.92" lane="e0_0" slope="0.00"/>
        <vehicle id="ego" x="59.99" y="-1.60" angle="90.00" type="ego_type" speed="0.11" pos="59.99" lane="e0_0" slope="0.00"/>
    </timestep>
    <timestep time="46.50">
        <vehicle id="background.0" x="52.15" y="-1.60" angle="90.00" type="human" speed="0.46" pos="52.15" lane="e0_0" slope="0.00"/>
        <vehicle id="ego" x="60.42" y="-1.60" angle="90.00" type="ego_type" speed="0.86" pos="60.42" lane="e0_0" slope="0.00"/>
    </timestep>
    <timestep time="47.00">
        <vehicle id="background.0" x="52.46" y="-1.60" angle="90.00" type="human" speed="0.60" pos="52.46" lane="e0_0" slope="0.00"/>
        <vehicle id="ego" x="61.22" y="-1.60" angle="90.00" type="ego_type" speed="1.61" pos="61.22" lane="e0_0" slope="0.00"/>
    </timestep>
    <timestep time="47.50">
        <vehicle id="background.0" x="53.00" y="-1.60" angle="90.00" type="human" speed="1.10" pos="53.00" lane="e0_0" slope="0.00"/>
        <vehicle id="ego" x="62.27" y="-1.60" angle="90.00" type="ego_type" speed="2.11" pos="62.27" lane="e0_0" slope="0.00"/>
    </timestep>
    <timestep time="48.00">
        <vehicle id="background.0" x="53.80" y="-1.60" angle="90.00" type="human" speed="1.59" pos="53.80" lane="e0_0" slope="0.00"/>
        <vehicle id="ego" x="62.95" y="-1.60" angle="90.00" type="ego_type" speed="1.36" pos="62.95" lane="e0_0" slope="0.00"/>
    </timestep>
    <timestep time="48.50">
        <vehicle id="background.0" x="54.51" y="-1.60" angle="90.00" type="human" speed="1.42" pos="54.51" lane="e0_0" slope="0.00"/>
        <vehicle id="ego" x="64.00" y="-1.60" angle="90.00" type="ego_type" speed="2.11" pos="64.00" lane="e0_0" slope="0.00"/>
    </timestep>
    <timestep time="49.00">
        <vehicle id="background.0" x="55.34" y="-1.60" angle="90.00" type="human" speed="1.66" pos="55.34" lane="e0_0" slope="0.00"/>
        <vehicle id="ego" x="64.81" y="-1.60" angle="90.00" type="ego_type" speed="1.61" pos="64.81" lane="e0_0" slope="0.00"/>
    </timestep>
    <timestep time="49.50">
        <vehicle id="background.0" x="56.24" y="-1.60" angle="90.00" type="human" speed="1.81" pos="56.24" lane="e0_0" slope="0.00"/>
        <vehicle id="ego" x="64.86" y="-1.60" angle="90.00" type="ego_type" speed="0.11" pos="64.86" lane="e0_0" slope="0.00"/>
    </timestep>
    <timestep time="50.00">
        <vehicle id="background.0" x="56.68" y="-1.60" angle="90.00" type="human" speed="0.86" pos="56.68" lane="e0_0" slope="0.00"/>
        <vehicle id="ego" x="65.04" y="-1.60" angle="90.00" type="ego_type" speed="0.36" pos="65.04" lane="e0_0" slope="0.00"/>
    </timestep>
    <timestep time="50.50">
        <vehicle id="background.0" x="57.00" y="-1.60" angle="90.00" type="human" speed="0.66" pos="57.00" lane="e0_0" slope="0.00"/>
        <vehicle id="ego" x="65.34" y="-1.60" angle="90.00" type="ego_type" speed="0.61" pos="65.34" lane="e0_0" slope="0.00"/>
    </timestep>
    <timestep time="51.00">
        <vehicle id="background.0" x="57.40" y="-1.60" angle="90.00" type="human" speed="0.79" pos="57.40" lane="e0_0" slope="0.00"/>
        <vehicle id="ego" x="66.02" y="-1.60" angle="90.00" type="ego_type" speed="1.36" pos="66.02" lane="e0_0" slope="0.00"/>
    </timestep>
    <timestep time="51.50">
        <vehicle id="background.0" x="57.87" y="-1.60" angle="90.00" type="human" speed="0.93" pos="57.87" lane="e0_0" slope="0.00"/>
        <vehicle id="ego" x="67.19" y="-1.60" angle="90.00" type="ego_type" speed="2.36" pos="67.19" lane="e0_0" slope="0.00"/>
    </timestep>
    <timestep time="52.00">
        <vehicle id="background.0" x="58.71" y="-1.60" angle="90.00" type="human" speed="1.69" pos="58.71" lane="e0_0" slope="0.00"/>
        <vehicle id="ego" x="68.25" y="-1.60" angle="90.00" type="ego_type" speed="2.11" pos="68.25" lane="e0_0" slope="0.00"/>
    </timestep>
    <timestep time="52.50">
        <vehicle id="background.0" x="59.59" y="-1.60" angle="90.00" type="human" speed="1.76" pos="59.59" lane="e0_0" slope="0.00"/>
        <vehicle id="ego" x="69.42" y="-1.60" angle="90.00" type="ego_type" speed="2.36" pos="69.42" lane="e0_0" slope="0.00"/>
    </timestep>
    <timestep time="53.00">
        <vehicle id="background.0" x="60.54" y="-1.60" angle="90.00" type="human" speed="1.89" pos="60.54" lane="e0_0" slope="0.00"/>
        <vehicle id="ego" x="70.60" y="-1.60" angle="90.00" type="ego_type" speed="2.36" pos="70.60" lane="e0_0" slope="0.00"/>
    </timestep>
    <timestep time="53.50">
        <vehicle id="background.0" x="61.59" y="-1.60" angle="90.00" type="human" speed="2.10" pos="61.59" lane="e0_0" slope="0.00"/>
        <vehicle id="ego" x="71.28" y="-1.60" angle="90.00" type="ego_type" speed="1.36" pos="71.28" lane="e0_0" slope="0.00"/>
    </timestep>
    <timestep time="54.00">
        <vehicle id="background.0" x="62.33" y="-1.60" angle="90.00" type="human" speed="1.48" pos="62.33" lane="e0_0" slope="0.00"/>
        <vehicle id="ego" x="71.33" y="-1.60" angle="90.00" type="ego_type" speed="0.11" pos="71.33" lane="e0_0" slope="0.00"/>
    </timestep>
    <timestep time="54.50">
        <vehicle id="background.0" x="62.98" y="-1.60" angle="90.00" type="human" speed="1.30" pos="62.98" lane="e0_0" slope="0.00"/>
        <vehicle id="ego" x="71.39" y="-1.60" angle="90.00" type="ego_type" speed="0.11" pos="71.39" lane="e0_0" slope="0.00"/>
    </timestep>
    <timestep time="55.00">
        <vehicle id="background.0" x="63.35" y="-1.60" angle="90.00" type="human" speed="0.74" pos="63.35" lane="e0_0" slope="0.00"/>
        <vehicle id="ego" x="71.69" y="-1.60" angle="90.00" type="ego_type" speed="0.61" pos="71.69" lane="e0_0" slope="0.00"/>
    </timestep>
    <timestep time="55.50">
        <vehicle id="background.0" x="63.73" y="-1.60" angle="90.00" type="human" speed="0.76" pos="63.73" lane="e0_0" slope="0.00"/>
        <vehicle id="ego" x="71.87" y="-1.60" angle="90.00" type="ego_type" speed="0.36" pos="71.87" lane="e0_0" slope="0.00"/>
    </timestep>
    <timestep time="56.00">
        <vehicle id="background.0" x="64.04" y="-1.60" angle="90.00" type="human" speed="0.63" pos="64.04" lane="e0_0" slope="0.00"/>
        <vehicle id="ego" x="72.29" y="-1.60" angle="90.00" type="ego_type" speed="0.86" pos="72.29" lane="e0_0" slope="0.00"/>
    </timestep>
    <timestep time="56.50">
        <vehicle id="background.0" x="64.41" y="-1.60" angle="90.00" type="human" speed="0.73" pos="64.41" lane="e0_0" slope="0.00"/>
        <vehicle id="ego" x="72.97" y="-1.60" angle="90.00" type="ego_type" speed="1.36" pos="72.97" lane="e0_0" slope="0.00"/>
    </timestep>
    <timestep time="57.00">
        <vehicle id="background.0" x="64.85" y="-1.60" angle="90.00" type="human" speed="0.89" pos="64.85" lane="e0_0" slope="0.00"/>
        <vehicle id="ego" x="73.77" y="-1.60" angle="90.00" type="ego_type" speed="1.61" pos="73.77" lane="e0_0" slope="0.00"/>
    </timestep>
    <timestep time="57.50">
        <vehicle id="background.0" x="65.49" y="-1.60" angle="90.00" type="human" speed="1.27" pos="65.49" lane="e0_0" slope="0.00"/>
        <vehicle id="ego" x="73.83" y="-1.60" angle="90.00" type="ego_type" speed="0.11" pos="73.83" lane="e0_0" slope="0.00"/>
    </timestep>
    <timestep time="58.00">
        <vehicle id="background.0" x="65.89" y="-1.60" angle="90.00" type="human" speed="0.81" pos="65.89" lane="e0_0" slope="0.00"/>
        <vehicle id="ego" x="73.88" y="-1.60" angle="90.00" type="ego_type" speed="0.11" pos="73.88" lane="e0_0" slope="0.00"/>
    </timestep>
    <timestep time="58.50">
        <vehicle id="background.0" x="66.13" y="-1.60" angle="90.00" type="human" speed="0.48" pos="66.13" lane="e0_0" slope="0.00"/>
        <vehicle id="ego" x="73.93" y="-1.60" angle="90.00" type="ego_type" speed="0.11" pos="73.93" lane="e0_0" slope="0.00"/>
    </timestep>
    <timestep time="59.00">
        <vehicle id="background.0" x="66.25" y="-1.60" angle="90.00" type="human" speed="0.24" pos="66.25" lane="e0_0" slope="0.00"/>
        <vehicle id="ego" x="74.48" y="-1.60" angle="90.00" type="ego_type" speed="1.11" pos="74.48" lane="e0_0" slope="0.00"/>
    </timestep>
    <timestep time="59.50">
        <vehicle id="background.0" x="66.60" y="-1.60" angle="90.00" type="human" speed="0.71" pos="66.60" lane="e0_0" slope="0.00"/>
        <vehicle id="ego" x="74.54" y="-1.60" angle="90.00" type="ego_type" speed="0.11" pos="74.54" lane="e0_0" slope="0.00"/>
    </timestep>
    <timestep time="60.00">
        <vehicle id="background.0" x="66.79" y="-1.60" angle="90.00" type="human" speed="0.37" pos="66.79" lane="e0_0" slope="0.00"/>
        <vehicle id="ego" x="74.97" y="-1.60" angle="90.00" type="ego_type" speed="0.86" pos="74.97" lane="e0_0" slope="0.00"/>
    </timestep>
    <timestep time="60.50">
        <vehicle id="background.0" x="67.12" y="-1.60" angle="90.00" type="human" speed="0.67" pos="67.12" lane="e0_0" slope="0.00"/>
        <vehicle id="ego" x="75.77" y="-1.60" angle="90.00" type="ego_type" speed="1.61" pos="75.77" lane="e0_0" slope="0.00"/>
    </timestep>
    <timestep time="61.00">
        <vehicle id="background.0" x="67.72" y="-1.60" angle="90.00" type="human" speed="1.19" pos="67.72" lane="e0_0" slope="0.00"/>
        <vehicle id="ego" x="76.82" y="-1.60" angle="90.00" type="ego_type" speed="2.11" pos="76.82" lane="e0_0" slope="0.00"/>
    </timestep>
    <timestep time="61.50">