<?xml version="1.0" encoding="UTF-8"?>

<!-- generated on 2026-05-13 21:30:30 by Eclipse SUMO sumo Version 1.24.0
<sumoConfiguration xmlns:xsi="http://www.w3.org/2001/XMLSchema-instance" xsi:noNamespaceSchemaLocation="http://sumo.dlr.de/xsd/sumoConfiguration.xsd">

    <input>
        <net-file value="scenarios/simple_arterial/simple_arterial.net.xml"/>
        <route-files value="scenarios/simple_arterial/simple_arterial.rou.xml"/>
        <additional-files value="scenarios/simple_arterial/simple_arterial.tls.xml"/>
    </input>

    <output>
        <fcd-output value="runs/fcd_rlhf/episode_00006_seed_206.fcd.xml"/>
    </output>

    <time>
        <begin value="0"/>
        <end value="900"/>
        <step-length value="0.5"/>
    </time>

    <report>
        <no-warnings value="true"/>
    </report>

    <traci_server>
        <remote-port value="22810"/>
    </traci_server>

    <random_number>
        <seed value="206"/>
    </random_number>

</sumoConfiguration>
-->

<fcd-export xmlns:xsi="http://www.w3.org/2001/XMLSchema-instance" xsi:noNamespaceSchemaLocation="http://sumo.dlr.de/xsd/fcd_file.xsd">
    <timestep time="0.00"/>
    <timestep time="0.50"/>
    <timestep time="1.00"/>
    <timestep time="1.50"/>
    <timestep time="2.00"/>
    <timestep time="2.50"/>
    <timestep time="3.00"/>
    <timestep time="3.50"/>
    <timestep time="4.00"/>
    <timestep time="4.50"/>
    <timestep time="5.00"/>
    <timestep time="5.50"/>
    <timestep time="6.00"/>
    <timestep time="6.50"/>
    <timestep time="7.00"/>
    <timestep time="7.50"/>
    <timestep time="8.00"/>
    <timestep time="8.50"/>
    <timestep time="9.00"/>
    <timestep time="9.50"/>
    <timestep time="10.00"/>
    <timestep time="10.50"/>
    <timestep time="11.00"/>
    <timestep time="11.50"/>
    <timestep time="12.00"/>
    <timestep time="12.50"/>
    <timestep time="13.00"/>
    <timestep time="13.50"/>
    <timestep time="14.00">
        <vehicle id="background.0" x="5.10" y="-1.60" angle="90.00" type="human" speed="13.86" pos="5.10" lane="e0_0" slope="0.00"/>
    </timestep>
    <timestep time="14.50">
        <vehicle id="background.0" x="11.91" y="-1.60" angle="90.00" type="human" speed="13.61" pos="11.91" lane="e0_0" slope="0.00"/>
    </timestep>
    <timestep time="15.00">
        <vehicle id="background.0" x="18.62" y="-1.60" angle="90.00" type="human" speed="13.44" pos="18.62" lane="e0_0" slope="0.00"/>
    </timestep>
    <timestep time="15.50">
        <vehicle id="background.0" x="25.46" y="-1.60" angle="90.00" type="human" speed="13.68" pos="25.46" lane="e0_0" slope="0.00"/>
    </timestep>
    <timestep time="16.00">
        <vehicle id="background.0" x="32.19" y="-1.60" angle="90.00" type="human" speed="13.45" pos="32.19" lane="e0_0" slope="0.00"/>
    </timestep>
    <timestep time="16.50">
        <vehicle id="background.0" x="39.01" y="-1.60" angle="90.00" type="human" speed="13.64" pos="39.01" lane="e0_0" slope="0.00"/>
    </timestep>
    <timestep time="17.00">
        <vehicle id="background.0" x="45.71" y="-1.60" angle="90.00" type="human" speed="13.40" pos="45.71" lane="e0_0" slope="0.00"/>
    </timestep>
    <timestep time="17.50">
        <vehicle id="background.0" x="52.55" y="-1.60" angle="90.00" type="human" speed="13.68" pos="52.55" lane="e0_0" slope="0.00"/>
    </timestep>
    <timestep time="18.00">
        <vehicle id="background.0" x="59.35" y="-1.60" angle="90.00" type="human" speed="13.61" pos="59.35" lane="e0_0" slope="0.00"/>
    </timestep>
    <timestep time="18.50">
        <vehicle id="background.0" x="66.12" y="-1.60" angle="90.00" type="human" speed="13.54" pos="66.12" lane="e0_0" slope="0.00"/>
    </timestep>
    <timestep time="19.00">
        <vehicle id="background.0" x="72.89" y="-1.60" angle="90.00" type="human" speed="13.53" pos="72.89" lane="e0_0" slope="0.00"/>
    </timestep>
    <timestep time="19.50">
        <vehicle id="background.0" x="79.69" y="-1.60" angle="90.00" type="human" speed="13.59" pos="79.69" lane="e0_0" slope="0.00"/>
    </timestep>
    <timestep time="20.00">
        <vehicle id="background.0" x="86.54" y="-1.60" angle="90.00" type="human" speed="13.70" pos="86.54" lane="e0_0" slope="0.00"/>
    </timestep>
    <timestep time="20.50">
        <vehicle id="background.0" x="93.38" y="-1.60" angle="90.00" type="human" speed="13.69" pos="93.38" lane="e0_0" slope="0.00"/>
    </timestep>
    <timestep time="21.00">
        <vehicle id="background.0" x="100.16" y="-1.60" angle="90.00" type="human" speed="13.56" pos="100.16" lane="e0_0" slope="0.00"/>
    </timestep>
    <timestep time="21.50">
        <vehicle id="background.0" x="107.09" y="-1.60" angle="90.00" type="human" speed="13.85" pos="107.09" lane="e0_0" slope="0.00"/>
    </timestep>
    <timestep time="22.00">
        <vehicle id="background.0" x="113.97" y="-1.60" angle="90.00" type="human" speed="13.77" pos="113.97" lane="e0_0" slope="0.00"/>
    </timestep>
    <timestep time="22.50">
        <vehicle id="background.0" x="120.77" y="-1.60" angle="90.00" type="human" speed="13.59" pos="120.77" lane="e0_0" slope="0.00"/>
    </timestep>
    <timestep time="23.00">
        <vehicle id="background.0" x="127.56" y="-1.60" angle="90.00" type="human" speed="13.59" pos="127.56" lane="e0_0" slope="0.00"/>
    </timestep>
    <timestep time="23.50">
        <vehicle id="background.0" x="134.48" y="-1.60" angle="90.00" type="human" speed="13.85" pos="134.48" lane="e0_0" slope="0.00"/>
    </timestep>
    <timestep time="24.00">
        <vehicle id="background.0" x="141.29" y="-1.60" angle="90.00" type="human" speed="13.61" pos="141.29" lane="e0_0" slope="0.00"/>
    </timestep>
    <timestep time="24.50">
        <vehicle id="background.0" x="148.19" y="-1.60" angle="90.00" type="human" speed="13.81" pos="148.19" lane="e0_0" slope="0.00"/>
    </timestep>
    <timestep time="25.00">
        <vehicle id="background.0" x="155.08" y="-1.60" angle="90.00" type="human" speed="13.77" pos="155.08" lane="e0_0" slope="0.00"/>
    </timestep>
    <timestep time="25.50">
        <vehicle id="background.0" x="161.80" y="-1.60" angle="90.00" type="human" speed="13.44" pos="161.80" lane="e0_0" slope="0.00"/>
    </timestep>
    <timestep time="26.00">
        <vehicle id="background.0" x="168.64" y="-1.60" angle="90.00" type="human" speed="13.69" pos="168.64" lane="e0_0" slope="0.00"/>
    </timestep>
    <timestep time="26.50">
        <vehicle id="background.0" x="175.37" y="-1.60" angle="90.00" type="human" speed="13.45" pos="175.37" lane="e0_0" slope="0.00"/>
    </timestep>
    <timestep time="27.00">
        <vehicle id="background.0" x="182.24" y="-1.60" angle="90.00" type="human" speed="13.75" pos="182.24" lane="e0_0" slope="0.00"/>
    </timestep>
    <timestep time="27.50">
        <vehicle id="background.0" x="188.95" y="-1.60" angle="90.00" type="human" speed="13.42" pos="188.95" lane="e0_0" slope="0.00"/>
    </timestep>
    <timestep time="28.00">
        <vehicle id="background.0" x="195.82" y="-1.60" angle="90.00" type="human" speed="13.74" pos="195.82" lane="e0_0" slope="0.00"/>
    </timestep>
    <timestep time="28.50">
        <vehicle id="background.0" x="202.61" y="-1.60" angle="90.00" type="human" speed="13.57" pos="202.61" lane="e0_0" slope="0.00"/>
    </timestep>
    <timestep time="29.00">
        <vehicle id="background.0" x="209.33" y="-1.60" angle="90.00" type="human" speed="13.45" pos="209.33" lane="e0_0" slope="0.00"/>
    </timestep>
    <timestep time="29.50">
        <vehicle id="background.0" x="216.26" y="-1.60" angle="90.00" type="human" speed="13.85" pos="216.26" lane="e0_0" slope="0.00"/>
    </timestep>
    <timestep time="30.00">
        <vehicle id="background.0" x="223.15" y="-1.60" angle="90.00" type="human" speed="13.79" pos="223.15" lane="e0_0" slope="0.00"/>
    </timestep>
    <timestep time="30.50">
        <vehicle id="background.0" x="229.94" y="-1.60" angle="90.00" type="human" speed="13.57" pos="229.94" lane="e0_0" slope="0.00"/>
    </timestep>
    <timestep time="31.00">
        <vehicle id="background.0" x="236.77" y="-1.60" angle="90.00" type="human" speed="13.67" pos="236.77" lane="e0_0" slope="0.00"/>
    </timestep>
    <timestep time="31.50">
        <vehicle id="background.0" x="243.66" y="-1.60" angle="90.00" type="human" speed="13.77" pos="243.66" lane="e0_0" slope="0.00"/>
    </timestep>
    <timestep time="32.00">
        <vehicle id="background.0" x="250.46" y="-1.60" angle="90.00" type="human" speed="13.61" pos="250.46" lane="e0_0" slope="0.00"/>
    </timestep>
    <timestep time="32.50">
        <vehicle id="background.0" x="257.24" y="-1.60" angle="90.00" type="human" speed="13.55" pos="257.24" lane="e0_0" slope="0.00"/>
    </timestep>
    <timestep time="33.00">
        <vehicle id="background.0" x="263.93" y="-1.60" angle="90.00" type="human" speed="13.39" pos="263.93" lane="e0_0" slope="0.00"/>
    </timestep>
    <timestep time="33.50">
        <vehicle id="background.0" x="270.82" y="-1.60" angle="90.00" type="human" speed="13.76" pos="270.82" lane="e0_0" slope="0.00"/>
    </timestep>
    <timestep time="34.00">
        <vehicle id="background.0" x="277.52" y="-1.60" angle="90.00" type="human" speed="13.41" pos="277.52" lane="e0_0" slope="0.00"/>
    </timestep>
    <timestep time="34.50">
        <vehicle id="background.0" x="284.38" y="-1.60" angle="90.00" type="human" speed="13.73" pos="284.38" lane="e0_0" slope="0.00"/>
    </timestep>
    <timestep time="35.00">
        <vehicle id="background.0" x="291.18" y="-1.60" angle="90.00" type="human" speed="13.60" pos="291.18" lane="e0_0" slope="0.00"/>
    </timestep>
    <timestep time="35.50">
        <vehicle id="background.0" x="297.87" y="-1.60" angle="90.00" type="human" speed="13.37" pos="297.87" lane="e0_0" slope="0.00"/>
    </timestep>
    <timestep time="36.00">
        <vehicle id="background.0" x="304.50" y="-1.60" angle="90.00" type="human" speed="13.46" pos="4.50" lane="e1_0" slope="0.00"/>
    </timestep>
    <timestep time="36.50">
        <vehicle id="background.0" x="311.41" y="-1.60" angle="90.00" type="human" speed="13.81" pos="11.41" lane="e1_0" slope="0.00"/>
    </timestep>
    <timestep time="37.00">
        <vehicle id="background.0" x="318.16" y="-1.60" angle="90.00" type="human" speed="13.51" pos="18.16" lane="e1_0" slope="0.00"/>
    </timestep>
    <timestep time="37.50">
        <vehicle id="background.0" x="324.89" y="-1.60" angle="90.00" type="human" speed="13.46" pos="24.89" lane="e1_0" slope="0.00"/>
    </timestep>
    <timestep time="38.00">
        <vehicle id="background.0" x="331.82" y="-1.60" angle="90.00" type="human" speed="13.85" pos="31.82" lane="e1_0" slope="0.00"/>
    </timestep>
    <timestep time="38.50">
        <vehicle id="background.0" x="338.73" y="-1.60" angle="90.00" type="human" speed="13.83" pos="38.73" lane="e1_0" slope="0.00"/>
    </timestep>
    <timestep time="39.00">
        <vehicle id="background.0" x="345.45" y="-1.60" angle="90.00" type="human" speed="13.43" pos="45.45" lane="e1_0" slope="0.00"/>
    </timestep>
    <timestep time="39.50"/>
    <timestep time="40.00"/>
    <timestep time="40.50"/>
    <timestep time="41.00"/>
    <timestep time="41.50"/>
    <timestep time="42.00"/>
    <timestep time="42.50"/>
    <timestep time="43.00"/>
    <timestep time="43.50"/>
    <timestep time="44.00"/>
    <timestep time="44.50">
        <vehicle id="background.1" x="5.10" y="-1.60" angle="90.00" type="human" speed="13.89" pos="5.10" lane="e0_0" slope="0.00"/>
    </timestep>
    <timestep time="45.00">
        <vehicle id="background.1" x="11.95" y="-1.60" angle="90.00" type="human" speed="13.69" pos="11.95" lane="e0_0" slope="0.00"/>
    </timestep>
    <timestep time="45.50">
        <vehicle id="background.1" x="18.66" y="-1.60" angle="90.00" type="human" speed="13.43" pos="18.66" lane="e0_0" slope="0.00"/>
    </timestep>
    <timestep time="46.00">
        <vehicle id="background.1" x="25.47" y="-1.60" angle="90.00" type="human" speed="13.62" pos="25.47" lane="e0_0" slope="0.00"/>
    </timestep>
    <timestep time="46.50">
        <vehicle id="background.1" x="32.19" y="-1.60" angle="90.00" type="human" speed="13.45" pos="32.19" lane="e0_0" slope="0.00"/>
    </timestep>
    <timestep time="47.00">
        <vehicle id="background.1" x="39.10" y="-1.60" angle="90.00" type="human" speed="13.82" pos="39.10" lane="e0_0" slope="0.00"/>
    </timestep>
    <timestep time="47.50">
        <vehicle id="background.1" x="45.93" y="-1.60" angle="90.00" type="human" speed="13.65" pos="45.93" lane="e0_0" slope="0.00"/>
    </timestep>
    <timestep time="48.00">
        <vehicle id="background.1" x="52.70" y="-1.60" angle="90.00" type="human" speed="13.56" pos="52.70" lane="e0_0" slope="0.00"/>
    </timestep>
    <timestep time="48.50">
        <vehicle id="background.1" x="59.57" y="-1.60" angle="90.00" type="human" speed="13.74" pos="59.57" lane="e0_0" slope="0.00"/>
    </timestep>
    <timestep time="49.00">
        <vehicle id="background.1" x="66.28" y="-1.60" angle="90.00" type="human" speed="13.42" pos="66.28" lane="e0_0" slope="0.00"/>
    </timestep>
    <timestep time="49.50">
        <vehicle id="background.1" x="73.09" y="-1.60" angle="90.00" type="human" speed="13.61" pos="73.09" lane="e0_0" slope="0.00"/>
    </timestep>
    <timestep time="50.00">
        <vehicle id="background.1" x="79.88" y="-1.60" angle="90.00" type="human" speed="13.59" pos="79.88" lane="e0_0" slope="0.00"/>
    </timestep>
    <timestep time="50.50">
        <vehicle id="background.1" x="86.60" y="-1.60" angle="90.00" type="human" speed="13.44" pos="86.60" lane="e0_0" slope="0.00"/>
    </timestep>
    <timestep time="51.00">
        <vehicle id="background.1" x="93.32" y="-1.60" angle="90.00" type="human" speed="13.43" pos="93.32" lane="e0_0" slope="0.00"/>
    </timestep>
    <timestep time="51.50">
        <vehicle id="background.1" x="100.22" y="-1.60" angle="90.00" type="human" speed="13.80" pos="100.22" lane="e0_0" slope="0.00"/>
    </timestep>
    <timestep time="52.00">
        <vehicle id="background.1" x="107.15" y="-1.60" angle="90.00" type="human" speed="13.86" pos="107.15" lane="e0_0" slope="0.00"/>
    </timestep>
    <timestep time="52.50">
        <vehicle id="background.1" x="114.08" y="-1.60" angle="90.00" type="human" speed="13.86" pos="114.08" lane="e0_0" slope="0.00"/>
    </timestep>
    <timestep time="53.00">
        <vehicle id="background.1" x="120.79" y="-1.60" angle="90.00" type="human" speed="13.42" pos="120.79" lane="e0_0" slope="0.00"/>
    </timestep>
    <timestep time="53.50">
        <vehicle id="background.1" x="127.65" y="-1.60" angle="90.00" type="human" speed="13.72" pos="127.65" lane="e0_0" slope="0.00"/>
    </timestep>
    <timestep time="54.00">
        <vehicle id="background.1" x="134.57" y="-1.60" angle="90.00" type="human" speed="13.85" pos="134.57" lane="e0_0" slope="0.00"/>
    </timestep>
    <timestep time="54.50">
        <vehicle id="background.1" x="141.34" y="-1.60" angle="90.00" type="human" speed="13.54" pos="141.34" lane="e0_0" slope="0.00"/>
    </timestep>
    <timestep time="55.00">
        <vehicle id="background.1" x="148.06" y="-1.60" angle="90.00" type="human" speed="13.44" pos="148.06" lane="e0_0" slope="0.00"/>
    </timestep>
    <timestep time="55.50">
        <vehicle id="background.1" x="154.85" y="-1.60" angle="90.00" type="human" speed="13.58" pos="154.85" lane="e0_0" slope="0.00"/>
    </timestep>
    <timestep time="56.00">
        <vehicle id="background.1" x="161.60" y="-1.60" angle="90.00" type="human" speed="13.50" pos="161.60" lane="e0_0" slope="0.00"/>
    </timestep>
    <timestep time="56.50">
        <vehicle id="background.1" x="168.38" y="-1.60" angle="90.00" type="human" speed="13.55" pos="168.38" lane="e0_0" slope="0.00"/>
    </timestep>
    <timestep time="57.00">
        <vehicle id="background.1" x="175.26" y="-1.60" angle="90.00" type="human" speed="13.76" pos="175.26" lane="e0_0" slope="0.00"/>
    </timestep>
    <timestep time="57.50">
        <vehicle id="background.1" x="182.10" y="-1.60" angle="90.00" type="human" speed="13.69" pos="182.10" lane="e0_0" slope="0.00"/>
    </timestep>
    <timestep time="58.00">
        <vehicle id="background.1" x="188.96" y="-1.60" angle="90.00" type="human" speed="13.72" pos="188.96" lane="e0_0" slope="0.00"/>
    </timestep>
    <timestep time="58.50">
        <vehicle id="background.1" x="195.74" y="-1.60" angle="90.00" type="human" speed="13.56" pos="195.74" lane="e0_0" slope="0.00"/>
    </timestep>
    <timestep time="59.00">
        <vehicle id="background.1" x="202.57" y="-1.60" angle="90.00" type="human" speed="13.65" pos="202.57" lane="e0_0" slope="0.00"/>
    </timestep>
    <timestep time="59.50">
        <vehicle id="background.1" x="209.48" y="-1.60" angle="90.00" type="human" speed="13.83" pos="209.48" lane="e0_0" slope="0.00"/>
    </timestep>
    <timestep time="60.00">
        <vehicle id="background.1" x="216.38" y="-1.60" angle="90.00" type="human" speed="13.80" pos="216.38" lane="e0_0" slope="0.00"/>
    </timestep>
    <timestep time="60.50">
        <vehicle id="background.1" x="223.31" y="-1.60" angle="90.00" type="human" speed="13.85" pos="223.31" lane="e0_0" slope="0.00"/>
    </timestep>
    <timestep time="61.00">
        <vehicle id="background.1" x="230.23" y="-1.60" angle="90.00" type="human" speed="13.85" pos="230.23" lane="e0_0" slope="0.00"/>
    </timestep>
    <timestep time="61.50">
        <vehicle id="background.1" x="236.98" y="-1.60" angle="90.00" type="human" speed="13.49" pos="236.98" lane="e0_0" slope="0.00"/>
    </timestep>
    <timestep time="62.00">
        <vehicle id="background.1" x="243.78" y="-1.60" angle="90.00" type="human" speed="13.59" pos="243.78" lane="e0_0" slope="0.00"/>
    </timestep>
    <timestep time="62.50">
        <vehicle id="background.1" x="250.61" y="-1.60" angle="90.00" type="human" speed="13.67" pos="250.61" lane="e0_0" slope="0.00"/>
    </timestep>
    <timestep time="63.00">
        <vehicle id="background.1" x="257.36" y="-1.60" angle="90.00" type="human" speed="13.50" pos="257.36" lane="e0_0" slope="0.00"/>
    </timestep>
    <timestep time="63.50">
        <vehicle id="background.1" x="264.07" y="-1.60" angle="90.00" type="human" speed="13.43" pos="264.07" lane="e0_0" slope="0.00"/>
    </timestep>
    <timestep time="64.00">
        <vehicle id="background.1" x="270.94" y="-1.60" angle="90.00" type="human" speed="13.73" pos="270.94" lane="e0_0" slope="0.00"/>
    </timestep>
    <timestep time="64.50">
        <vehicle id="background.1" x="277.66" y="-1.60" angle="90.00" type="human" speed="13.44" pos="277.66" lane="e0_0" slope="0.00"/>
    </timestep>
    <timestep time="65.00">
        <vehicle id="background.1" x="283.87" y="-1.60" angle="90.00" type="human" speed="12.43" pos="283.87" lane="e0_0" slope="0.00"/>
    </timestep>
    <timestep time="65.50">
        <vehicle id="background.1" x="288.96" y="-1.60" angle="90.00" type="human" speed="10.18" pos="288.96" lane="e0_0" slope="0.00"/>
    </timestep>
    <timestep time="66.00">
        <vehicle id="background.1" x="293.15" y="-1.60" angle="90.00" type="human" speed="8.39" pos="293.15" lane="e0_0" slope="0.00"/>
    </timestep>
    <timestep time="66.50">
        <vehicle id="background.1" x="296.22" y="-1.60" angle="90.00" type="human" speed="6.14" pos="296.22" lane="e0_0" slope="0.00"/>
    </timestep>
    <timestep time="67.00">
        <vehicle id="background.1" x="298.17" y="-1.60" angle="90.00" type="human" speed="3.89" pos="298.17" lane="e0_0" slope="0.00"/>
    </timestep>
    <timestep time="67.50">
        <vehicle id="background.1" x="298.99" y="-1.60" angle="90.00" type="human" speed="1.64" pos="298.99" lane="e0_0" slope="0.00"/>
    </timestep>
    <timestep time="68.00">
        <vehicle id="background.1" x="299.00" y="-1.60" angle="90.00" type="human" speed="0.02" pos="299.00" lane="e0_0" slope="0.00"/>
    </timestep>
    <timestep time="68.50">
        <vehicle id="background.1" x="299.00" y="-1.60" angle="90.00" type="human" speed="0.00" pos="299.00" lane="e0_0" slope="0.00"/>
    </timestep>
    <timestep time="69.00">
        <vehicle id="background.1" x="299.00" y="-1.60" angle="90.00" type="human" speed="0.00" pos="299.00" lane="e0_0" slope="0.00"/>
    </timestep>
    <timestep time="69.50">
        <vehicle id="background.1" x="299.00" y="-1.60" angle="90.00" type="human" speed="0.00" pos="299.00" lane="e0_0" slope="0.00"/>
    </timestep>
    <timestep time="70.00">
        <vehicle id="background.1" x="299.00" y="-1.60" angle="90.00" type="human" speed="0.00" pos="299.00" lane="e0_0" slope="0.00"/>
    </timestep>
    <timestep time="70.50">
        <vehicle id="background.1" x="299.00" y="-1.60" angle="90.00" type="human" speed="0.00" pos="299.00" lane="e0_0" slope="0.00"/>
    </timestep>
    <timestep time="71.00">
        <vehicle id="background.1" x="299.00" y="-1.60" angle="90.00" type="human" speed="0.00" pos="299.00" lane="e0_0" slope="0.00"/>
        <vehicle id="background.2" x="5.10" y="-1.60" angle="90.00" type="human" speed="13.89" pos="5.10" lane="e0_0" slope="0.00"/>
    </timestep>
    <timestep time="71.50">
        <vehicle id="background.1" x="299.00" y="-1.60" angle="90.00" type="human" speed="0.00" pos="299.00" lane="e0_0" slope="0.00"/>
        <vehicle id="background.2" x="11.97" y="-1.60" angle="90.00" type="human" speed="13.74" pos="11.97" lane="e0_0" slope="0.00"/>
    </timestep>
    <timestep time="72.00">
        <vehicle id="background.1" x="299.00" y="-1.60" angle="90.00" type="human" speed="0.00" pos="299.00" lane="e0_0" slope="0.00"/>
        <vehicle id="background.2" x="18.69" y="-1.60" angle="90.00" type="human" speed="13.43" pos="18.69" lane="e0_0" slope="0.00"/>
    </timestep>
    <timestep time="72.50">
        <vehicle id="background.1" x="299.00" y="-1.60" angle="90.00" type="human" speed="0.00" pos="299.00" lane="e0_0" slope="0.00"/>
        <vehicle id="background.2" x="25.56" y="-1.60" angle="90.00" type="human" speed="13.74" pos="25.56" lane="e0_0" slope="0.00"/>
    </timestep>
    <timestep time="73.00">
        <vehicle id="background.1" x="299.00" y="-1.60" angle="90.00" type="human" speed="0.00" pos="299.00" lane="e0_0" slope="0.00"/>
        <vehicle id="background.2" x="32.49" y="-1.60" angle="90.00" type="human" speed="13.87" pos="32.49" lane="e0_0" slope="0.00"/>
    </timestep>
    <timestep time="73.50">
        <vehicle id="background.1" x="299.00" y="-1.60" angle="90.00" type="human" speed="0.00" pos="299.00" lane="e0_0" slope="0.00"/>
        <vehicle id="background.2" x="39.34" y="-1.60" angle="90.00" type="human" speed="13.69" pos="39.34" lane="e0_0" slope="0.00"/>
    </timestep>
    <timestep time="74.00">
        <vehicle id="background.1" x="299.00" y="-1.60" angle="90.00" type="human" speed="0.00" pos="299.00" lane="e0_0" slope="0.00"/>
        <vehicle id="background.2" x="46.15" y="-1.60" angle="90.00" type="human" speed="13.62" pos="46.15" lane="e0_0" slope="0.00"/>
    </timestep>
    <timestep time="74.50">
        <vehicle id="background.1" x="299.00" y="-1.60" angle="90.00" type="human" speed="0.00" pos="299.00" lane="e0_0" slope="0.00"/>
        <vehicle id="background.2" x="52.89" y="-1.60" angle="90.00" type="human" speed="13.48" pos="52.89" lane="e0_0" slope="0.00"/>
    </timestep>
    <timestep time="75.00">
        <vehicle id="background.1" x="299.00" y="-1.60" angle="90.00" type="human" speed="0.00" pos="299.00" lane="e0_0" slope="0.00"/>
        <vehicle id="background.2" x="59.69" y="-1.60" angle="90.00" type="human" speed="13.61" pos="59.69" lane="e0_0" slope="0.00"/>
    </timestep>
    <timestep time="75.50">
        <vehicle id="background.1" x="299.00" y="-1.60" angle="90.00" type="human" speed="0.00" pos="299.00" lane="e0_0" slope="0.00"/>
        <vehicle id="background.2" x="66.62" y="-1.60" angle="90.00" type="human" speed="13.86" pos="66.62" lane="e0_0" slope="0.00"/>
    </timestep>
    <timestep time="76.00">
        <vehicle id="background.1" x="299.00" y="-1.60" angle="90.00" type="human" speed="0.00" pos="299.00" lane="e0_0" slope="0.00"/>
        <vehicle id="background.2" x="73.50" y="-1.60" angle="90.00" type="human" speed="13.76" pos="73.50" lane="e0_0" slope="0.00"/>
    </timestep>
    <timestep time="76.50">
        <vehicle id="background.1" x="299.00" y="-1.60" angle="90.00" type="human" speed="0.00" pos="299.00" lane="e0_0" slope="0.00"/>
        <vehicle id="background.2" x="80.32" y="-1.60" angle="90.00" type="human" speed="13.63" pos="80.32" lane="e0_0" slope="0.00"/>
    </timestep>
    <timestep time="77.00">
        <vehicle id="background.1" x="299.00" y="-1.60" angle="90.00" type="human" speed="0.00" pos="299.00" lane="e0_0" slope="0.00"/>
        <vehicle id="background.2" x="87.19" y="-1.60" angle="90.00" type="human" speed="13.74" pos="87.19" lane="e0_0" slope="0.00"/>
    </timestep>
    <timestep time="77.50">
        <vehicle id="background.1" x="299.00" y="-1.60" angle="90.00" type="human" speed="0.00" pos="299.00" lane="e0_0" slope="0.00"/>
        <vehicle id="background.2" x="94.00" y="-1.60" angle="90.00" type="human" speed="13.61" pos="94.00" lane="e0_0" slope="0.00"/>
    </timestep>
    <timestep time="78.00">
        <vehicle id="background.1" x="299.00" y="-1.60" angle="90.00" type="human" speed="0.00" pos="299.00" lane="e0_0" slope="0.00"/>
        <vehicle id="background.2" x="100.81" y="-1.60" angle="90.00" type="human" speed="13.62" pos="100.81" lane="e0_0" slope="0.00"/>
        <vehicle id="ego" x="5.10" y="-1.60" angle="90.00" type="ego_type" speed="0.00" pos="5.10" lane="e0_0" slope="0.00"/>
    </timestep>
    <timestep time="78.50">
        <vehicle id="background.1" x="299.00" y="-1.60" angle="90.00" type="human" speed="0.00" pos="299.00" lane="e0_0" slope="0.00"/>
        <vehicle id="background.2" x="107.51" y="-1.60" angle="90.00" type="human" speed="13.41" pos="107.51" lane="e0_0" slope="0.00"/>
        <vehicle id="ego" x="5.10" y="-1.60" angle="90.00" type="ego_type" speed="0.00" pos="5.10" lane="e0_0" slope="0.00"/>
    </timestep>
    <timestep time="79.00">
        <vehicle id="background.1" x="299.00" y="-1.60" angle="90.00" type="human" speed="0.00" pos="299.00" lane="e0_0" slope="0.00"/>
        <vehicle id="background.2" x="114.32" y="-1.60" angle="90.00" type="human" speed="13.60" pos="114.32" lane="e0_0" slope="0.00"/>
        <vehicle id="ego" x="5.10" y="-1.60" angle="90.00" type="ego_type" speed="0.00" pos="5.10" lane="e0_0" slope="0.00"/>
    </timestep>
    <timestep time="79.50">
        <vehicle id="background.1" x="299.00" y="-1.60" angle="90.00" type="human" speed="0.00" pos="299.00" lane="e0_0" slope="0.00"/>
        <vehicle id="background.2" x="121.14" y="-1.60" angle="90.00" type="human" speed="13.65" pos="121.14" lane="e0_0" slope="0.00"/>
        <vehicle id="ego" x="5.10" y="-1.60" angle="90.00" type="ego_type" speed="0.00" pos="5.10" lane="e0_0" slope="0.00"/>
    </timestep>
    <timestep time="80.00">
        <vehicle id="background.1" x="299.00" y="-1.60" angle="90.00" type="human" speed="0.00" pos="299.00" lane="e0_0" slope="0.00"/>
        <vehicle id="background.2" x="127.98" y="-1.60" angle="90.00" type="human" speed="13.68" pos="127.98" lane="e0_0" slope="0.00"/>
        <vehicle id="ego" x="5.10" y="-1.60" angle="90.00" type="ego_type" speed="0.00" pos="5.10" lane="e0_0" slope="0.00"/>
    </timestep>
    <timestep time="80.50">
        <vehicle id="background.1" x="299.00" y="-1.60" angle="90.00" type="human" speed="0.00" pos="299.00" lane="e0_0" slope="0.00"/>
        <vehicle id="background.2" x="134.85" y="-1.60" angle="90.00" type="human" speed="13.74" pos="134.85" lane="e0_0" slope="0.00"/>
        <vehicle id="ego" x="5.10" y="-1.60" angle="90.00" type="ego_type" speed="0.00" pos="5.10" lane="e0_0" slope="0.00"/>
    </timestep>
    <timestep time="81.00">
        <vehicle id="background.1" x="299.00" y="-1.60" angle="90.00" type="human" speed="0.00" pos="299.00" lane="e0_0" slope="0.00"/>
        <vehicle id="background.2" x="141.79" y="-1.60" angle="90.00" type="human" speed="13.88" pos="141.79" lane="e0_0" slope="0.00"/>
        <vehicle id="ego" x="5.10" y="-1.60" angle="90.00" type="ego_type" speed="0.00" pos="5.10" lane="e0_0" slope="0.00"/>
    </timestep>
    <timestep time="81.50">
        <vehicle id="background.1" x="299.00" y="-1.60" angle="90.00" type="human" speed="0.00" pos="299.00" lane="e0_0" slope="0.00"/>
        <vehicle id="background.2" x="148.73" y="-1.60" angle="90.00" type="human" speed="13.88" pos="148.73" lane="e0_0" slope="0.00"/>
        <vehicle id="ego" x="5.10" y="-1.60" angle="90.00" type="ego_type" speed="0.00" pos="5.10" lane="e0_0" slope="0.00"/>
    </timestep>
    <timestep time="82.00">
        <vehicle id="background.1" x="299.00" y="-1.60" angle="90.00" type="human" speed="0.00" pos="299.00" lane="e0_0" slope="0.00"/>
        <vehicle id="background.2" x="155.55" y="-1.60" angle="90.00" type="human" speed="13.64" pos="155.55" lane="e0_0" slope="0.00"/>
        <vehicle id="ego" x="5.10" y="-1.60" angle="90.00" type="ego_type" speed="0.00" pos="5.10" lane="e0_0" slope="0.00"/>
    </timestep>
    <timestep time="82.50">
        <vehicle id="background.1" x="299.00" y="-1.60" angle="90.00" type="human" speed="0.00" pos="299.00" lane="e0_0" slope="0.00"/>
        <vehicle id="background.2" x="162.25" y="-1.60" angle="90.00" type="human" speed="13.39" pos="162.25" lane="e0_0" slope="0.00"/>
        <vehicle id="ego" x="5.10" y="-1.60" angle="90.00" type="ego_type" speed="0.00" pos="5.10" lane="e0_0" slope="0.00"/>
    </timestep>
    <timestep time="83.00">
        <vehicle id="background.1" x="299.00" y="-1.60" angle="90.00" type="human" speed="0.00" pos="299.00" lane="e0_0" slope="0.00"/>