<?xml version="1.0" encoding="UTF-8"?>

<!-- generated on 2026-05-13 21:30:40 by Eclipse SUMO sumo Version 1.24.0
<sumoConfiguration xmlns:xsi="http://www.w3.org/2001/XMLSchema-instance" xsi:noNamespaceSchemaLocation="http://sumo.dlr.de/xsd/sumoConfiguration.xsd">

    <input>
        <net-file value="scenarios/simple_arterial/simple_arterial.net.xml"/>
        <route-files value="scenarios/simple_arterial/simple_arterial.rou.xml"/>
        <additional-files value="scenarios/simple_arterial/simple_arterial.tls.xml"/>
    </input>

    <output>
        <fcd-output value="runs/fcd_rlhf/episode_00011_seed_211.fcd.xml"/>
    </output>

    <time>
        <begin value="0"/>
        <end value="900"/>
        <step-length value="0.5"/>
    </time>

    <report>
        <no-warnings value="true"/>
    </report>

    <traci_server>
        <remote-port value="22810"/>
    </traci_server>

    <random_number>
        <seed value="211"/>
    </random_number>

</sumoConfiguration>
-->

<fcd-export xmlns:xsi="http://www.w3.org/2001/XMLSchema-instance" xsi:noNamespaceSchemaLocation="http://sumo.dlr.de/xsd/fcd_file.xsd">
    <timestep time="0.00"/>
    <timestep time="0.50"/>
    <timestep time="1.00"/>
    <timestep time="1.50"/>
    <timestep time="2.00"/>
    <timestep time="2.50"/>
    <timestep time="3.00"/>
    <timestep time="3.50"/>
    <timestep time="4.00"/>
    <timestep time="4.50"/>
    <timestep time="5.00"/>
    <timestep time="5.50"/>
    <timestep time="6.00"/>
    <timestep time="6.50"/>
    <timestep time="7.00"/>
    <timestep time="7.50"/>
    <timestep time="8.00"/>
    <timestep time="8.50">
        <vehicle id="background.0" x="5.10" y="-1.60" angle="90.00" type="human" speed="13.89" pos="5.10" lane="e0_0" slope="0.00"/>
    </timestep>
    <timestep time="9.00">
        <vehicle id="background.0" x="11.99" y="-1.60" angle="90.00" type="human" speed="13.77" pos="11.99" lane="e0_0" slope="0.00"/>
    </timestep>
    <timestep time="9.50">
        <vehicle id="background.0" x="18.89" y="-1.60" angle="90.00" type="human" speed="13.81" pos="18.89" lane="e0_0" slope="0.00"/>
    </timestep>
    <timestep time="10.00">
        <vehicle id="background.0" x="25.61" y="-1.60" angle="90.00" type="human" speed="13.43" pos="25.61" lane="e0_0" slope="0.00"/>
    </timestep>
    <timestep time="10.50">
        <vehicle id="background.0" x="32.48" y="-1.60" angle="90.00" type="human" speed="13.75" pos="32.48" lane="e0_0" slope="0.00"/>
    </timestep>
    <timestep time="11.00">
        <vehicle id="background.0" x="39.42" y="-1.60" angle="90.00" type="human" speed="13.86" pos="39.42" lane="e0_0" slope="0.00"/>
    </timestep>
    <timestep time="11.50">
        <vehicle id="background.0" x="46.33" y="-1.60" angle="90.00" type="human" speed="13.82" pos="46.33" lane="e0_0" slope="0.00"/>
    </timestep>
    <timestep time="12.00">
        <vehicle id="background.0" x="53.27" y="-1.60" angle="90.00" type="human" speed="13.88" pos="53.27" lane="e0_0" slope="0.00"/>
    </timestep>
    <timestep time="12.50">
        <vehicle id="background.0" x="60.08" y="-1.60" angle="90.00" type="human" speed="13.62" pos="60.08" lane="e0_0" slope="0.00"/>
        <vehicle id="background.1" x="5.10" y="-1.60" angle="90.00" type="human" speed="13.89" pos="5.10" lane="e0_0" slope="0.00"/>
    </timestep>
    <timestep time="13.00">
        <vehicle id="background.0" x="66.95" y="-1.60" angle="90.00" type="human" speed="13.73" pos="66.95" lane="e0_0" slope="0.00"/>
        <vehicle id="background.1" x="11.86" y="-1.60" angle="90.00" type="human" speed="13.51" pos="11.86" lane="e0_0" slope="0.00"/>
    </timestep>
    <timestep time="13.50">
        <vehicle id="background.0" x="73.82" y="-1.60" angle="90.00" type="human" speed="13.74" pos="73.82" lane="e0_0" slope="0.00"/>
        <vehicle id="background.1" x="18.73" y="-1.60" angle="90.00" type="human" speed="13.75" pos="18.73" lane="e0_0" slope="0.00"/>
    </timestep>
    <timestep time="14.00">
        <vehicle id="background.0" x="80.73" y="-1.60" angle="90.00" type="human" speed="13.82" pos="80.73" lane="e0_0" slope="0.00"/>
        <vehicle id="background.1" x="25.50" y="-1.60" angle="90.00" type="human" speed="13.54" pos="25.50" lane="e0_0" slope="0.00"/>
    </timestep>
    <timestep time="14.50">
        <vehicle id="background.0" x="87.58" y="-1.60" angle="90.00" type="human" speed="13.71" pos="87.58" lane="e0_0" slope="0.00"/>
        <vehicle id="background.1" x="32.35" y="-1.60" angle="90.00" type="human" speed="13.70" pos="32.35" lane="e0_0" slope="0.00"/>
    </timestep>
    <timestep time="15.00">
        <vehicle id="background.0" x="94.47" y="-1.60" angle="90.00" type="human" speed="13.77" pos="94.47" lane="e0_0" slope="0.00"/>
        <vehicle id="background.1" x="39.05" y="-1.60" angle="90.00" type="human" speed="13.40" pos="39.05" lane="e0_0" slope="0.00"/>
    </timestep>
    <timestep time="15.50">
        <vehicle id="background.0" x="101.17" y="-1.60" angle="90.00" type="human" speed="13.40" pos="101.17" lane="e0_0" slope="0.00"/>
        <vehicle id="background.1" x="45.80" y="-1.60" angle="90.00" type="human" speed="13.49" pos="45.80" lane="e0_0" slope="0.00"/>
    </timestep>
    <timestep time="16.00">
        <vehicle id="background.0" x="108.05" y="-1.60" angle="90.00" type="human" speed="13.75" pos="108.05" lane="e0_0" slope="0.00"/>
        <vehicle id="background.1" x="52.73" y="-1.60" angle="90.00" type="human" speed="13.87" pos="52.73" lane="e0_0" slope="0.00"/>
    </timestep>
    <timestep time="16.50">
        <vehicle id="background.0" x="114.94" y="-1.60" angle="90.00" type="human" speed="13.79" pos="114.94" lane="e0_0" slope="0.00"/>
        <vehicle id="background.1" x="59.46" y="-1.60" angle="90.00" type="human" speed="13.46" pos="59.46" lane="e0_0" slope="0.00"/>
    </timestep>
    <timestep time="17.00">
        <vehicle id="background.0" x="121.88" y="-1.60" angle="90.00" type="human" speed="13.87" pos="121.88" lane="e0_0" slope="0.00"/>
        <vehicle id="background.1" x="66.21" y="-1.60" angle="90.00" type="human" speed="13.50" pos="66.21" lane="e0_0" slope="0.00"/>
    </timestep>
    <timestep time="17.50">
        <vehicle id="background.0" x="128.61" y="-1.60" angle="90.00" type="human" speed="13.47" pos="128.61" lane="e0_0" slope="0.00"/>
        <vehicle id="background.1" x="73.06" y="-1.60" angle="90.00" type="human" speed="13.69" pos="73.06" lane="e0_0" slope="0.00"/>
    </timestep>
    <timestep time="18.00">
        <vehicle id="background.0" x="135.40" y="-1.60" angle="90.00" type="human" speed="13.58" pos="135.40" lane="e0_0" slope="0.00"/>
        <vehicle id="background.1" x="79.98" y="-1.60" angle="90.00" type="human" speed="13.84" pos="79.98" lane="e0_0" slope="0.00"/>
    </timestep>
    <timestep time="18.50">
        <vehicle id="background.0" x="142.12" y="-1.60" angle="90.00" type="human" speed="13.43" pos="142.12" lane="e0_0" slope="0.00"/>
        <vehicle id="background.1" x="86.72" y="-1.60" angle="90.00" type="human" speed="13.49" pos="86.72" lane="e0_0" slope="0.00"/>
        <vehicle id="background.2" x="5.10" y="-1.60" angle="90.00" type="human" speed="13.89" pos="5.10" lane="e0_0" slope="0.00"/>
    </timestep>
    <timestep time="19.00">
        <vehicle id="background.0" x="148.98" y="-1.60" angle="90.00" type="human" speed="13.74" pos="148.98" lane="e0_0" slope="0.00"/>
        <vehicle id="background.1" x="93.55" y="-1.60" angle="90.00" type="human" speed="13.65" pos="93.55" lane="e0_0" slope="0.00"/>
        <vehicle id="background.2" x="12.04" y="-1.60" angle="90.00" type="human" speed="13.88" pos="12.04" lane="e0_0" slope="0.00"/>
    </timestep>
    <timestep time="19.50">
        <vehicle id="background.0" x="155.72" y="-1.60" angle="90.00" type="human" speed="13.47" pos="155.72" lane="e0_0" slope="0.00"/>
        <vehicle id="background.1" x="100.28" y="-1.60" angle="90.00" type="human" speed="13.47" pos="100.28" lane="e0_0" slope="0.00"/>
        <vehicle id="background.2" x="18.78" y="-1.60" angle="90.00" type="human" speed="13.48" pos="18.78" lane="e0_0" slope="0.00"/>
    </timestep>
    <timestep time="20.00">
        <vehicle id="background.0" x="162.61" y="-1.60" angle="90.00" type="human" speed="13.79" pos="162.61" lane="e0_0" slope="0.00"/>
        <vehicle id="background.1" x="107.00" y="-1.60" angle="90.00" type="human" speed="13.45" pos="107.00" lane="e0_0" slope="0.00"/>
        <vehicle id="background.2" x="25.54" y="-1.60" angle="90.00" type="human" speed="13.51" pos="25.54" lane="e0_0" slope="0.00"/>
    </timestep>
    <timestep time="20.50">
        <vehicle id="background.0" x="169.37" y="-1.60" angle="90.00" type="human" speed="13.50" pos="169.37" lane="e0_0" slope="0.00"/>
        <vehicle id="background.1" x="113.91" y="-1.60" angle="90.00" type="human" speed="13.82" pos="113.91" lane="e0_0" slope="0.00"/>
        <vehicle id="background.2" x="32.32" y="-1.60" angle="90.00" type="human" speed="13.56" pos="32.32" lane="e0_0" slope="0.00"/>
    </timestep>
    <timestep time="21.00">
        <vehicle id="background.0" x="176.28" y="-1.60" angle="90.00" type="human" speed="13.83" pos="176.28" lane="e0_0" slope="0.00"/>
        <vehicle id="background.1" x="120.71" y="-1.60" angle="90.00" type="human" speed="13.59" pos="120.71" lane="e0_0" slope="0.00"/>
        <vehicle id="background.2" x="39.25" y="-1.60" angle="90.00" type="human" speed="13.87" pos="39.25" lane="e0_0" slope="0.00"/>
    </timestep>
    <timestep time="21.50">
        <vehicle id="background.0" x="183.01" y="-1.60" angle="90.00" type="human" speed="13.47" pos="183.01" lane="e0_0" slope="0.00"/>
        <vehicle id="background.1" x="127.45" y="-1.60" angle="90.00" type="human" speed="13.49" pos="127.45" lane="e0_0" slope="0.00"/>
        <vehicle id="background.2" x="46.00" y="-1.60" angle="90.00" type="human" speed="13.49" pos="46.00" lane="e0_0" slope="0.00"/>
    </timestep>
    <timestep time="22.00">
        <vehicle id="background.0" x="189.94" y="-1.60" angle="90.00" type="human" speed="13.85" pos="189.94" lane="e0_0" slope="0.00"/>
        <vehicle id="background.1" x="134.39" y="-1.60" angle="90.00" type="human" speed="13.87" pos="134.39" lane="e0_0" slope="0.00"/>
        <vehicle id="background.2" x="52.71" y="-1.60" angle="90.00" type="human" speed="13.43" pos="52.71" lane="e0_0" slope="0.00"/>
    </timestep>
    <timestep time="22.50">
        <vehicle id="background.0" x="196.67" y="-1.60" angle="90.00" type="human" speed="13.47" pos="196.67" lane="e0_0" slope="0.00"/>
        <vehicle id="background.1" x="141.18" y="-1.60" angle="90.00" type="human" speed="13.58" pos="141.18" lane="e0_0" slope="0.00"/>
        <vehicle id="background.2" x="59.65" y="-1.60" angle="90.00" type="human" speed="13.87" pos="59.65" lane="e0_0" slope="0.00"/>
    </timestep>
    <timestep time="23.00">
        <vehicle id="background.0" x="203.44" y="-1.60" angle="90.00" type="human" speed="13.54" pos="203.44" lane="e0_0" slope="0.00"/>
        <vehicle id="background.1" x="147.88" y="-1.60" angle="90.00" type="human" speed="13.41" pos="147.88" lane="e0_0" slope="0.00"/>
        <vehicle id="background.2" x="66.44" y="-1.60" angle="90.00" type="human" speed="13.59" pos="66.44" lane="e0_0" slope="0.00"/>
    </timestep>
    <timestep time="23.50">
        <vehicle id="background.0" x="210.24" y="-1.60" angle="90.00" type="human" speed="13.59" pos="210.24" lane="e0_0" slope="0.00"/>
        <vehicle id="background.1" x="154.59" y="-1.60" angle="90.00" type="human" speed="13.42" pos="154.59" lane="e0_0" slope="0.00"/>
        <vehicle id="background.2" x="73.20" y="-1.60" angle="90.00" type="human" speed="13.52" pos="73.20" lane="e0_0" slope="0.00"/>
    </timestep>
    <timestep time="24.00">
        <vehicle id="background.0" x="216.95" y="-1.60" angle="90.00" type="human" speed="13.42" pos="216.95" lane="e0_0" slope="0.00"/>
        <vehicle id="background.1" x="161.49" y="-1.60" angle="90.00" type="human" speed="13.80" pos="161.49" lane="e0_0" slope="0.00"/>
        <vehicle id="background.2" x="80.02" y="-1.60" angle="90.00" type="human" speed="13.63" pos="80.02" lane="e0_0" slope="0.00"/>
    </timestep>
    <timestep time="24.50">
        <vehicle id="background.0" x="223.78" y="-1.60" angle="90.00" type="human" speed="13.67" pos="223.78" lane="e0_0" slope="0.00"/>
        <vehicle id="background.1" x="168.34" y="-1.60" angle="90.00" type="human" speed="13.69" pos="168.34" lane="e0_0" slope="0.00"/>
        <vehicle id="background.2" x="86.86" y="-1.60" angle="90.00" type="human" speed="13.67" pos="86.86" lane="e0_0" slope="0.00"/>
    </timestep>
    <timestep time="25.00">
        <vehicle id="background.0" x="230.58" y="-1.60" angle="90.00" type="human" speed="13.61" pos="230.58" lane="e0_0" slope="0.00"/>
        <vehicle id="background.1" x="175.07" y="-1.60" angle="90.00" type="human" speed="13.46" pos="175.07" lane="e0_0" slope="0.00"/>
        <vehicle id="background.2" x="93.80" y="-1.60" angle="90.00" type="human" speed="13.89" pos="93.80" lane="e0_0" slope="0.00"/>
    </timestep>
    <timestep time="25.50">
        <vehicle id="background.0" x="237.43" y="-1.60" angle="90.00" type="human" speed="13.69" pos="237.43" lane="e0_0" slope="0.00"/>
        <vehicle id="background.1" x="181.80" y="-1.60" angle="90.00" type="human" speed="13.46" pos="181.80" lane="e0_0" slope="0.00"/>
        <vehicle id="background.2" x="100.51" y="-1.60" angle="90.00" type="human" speed="13.41" pos="100.51" lane="e0_0" slope="0.00"/>
    </timestep>
    <timestep time="26.00">
        <vehicle id="background.0" x="244.22" y="-1.60" angle="90.00" type="human" speed="13.59" pos="244.22" lane="e0_0" slope="0.00"/>
        <vehicle id="background.1" x="188.69" y="-1.60" angle="90.00" type="human" speed="13.78" pos="188.69" lane="e0_0" slope="0.00"/>
        <vehicle id="background.2" x="107.27" y="-1.60" angle="90.00" type="human" speed="13.52" pos="107.27" lane="e0_0" slope="0.00"/>
    </timestep>
    <timestep time="26.50">
        <vehicle id="background.0" x="251.12" y="-1.60" angle="90.00" type="human" speed="13.79" pos="251.12" lane="e0_0" slope="0.00"/>
        <vehicle id="background.1" x="195.46" y="-1.60" angle="90.00" type="human" speed="13.55" pos="195.46" lane="e0_0" slope="0.00"/>
        <vehicle id="background.2" x="114.11" y="-1.60" angle="90.00" type="human" speed="13.69" pos="114.11" lane="e0_0" slope="0.00"/>
    </timestep>
    <timestep time="27.00">
        <vehicle id="background.0" x="257.87" y="-1.60" angle="90.00" type="human" speed="13.50" pos="257.87" lane="e0_0" slope="0.00"/>
        <vehicle id="background.1" x="202.24" y="-1.60" angle="90.00" type="human" speed="13.56" pos="202.24" lane="e0_0" slope="0.00"/>
        <vehicle id="background.2" x="120.86" y="-1.60" angle="90.00" type="human" speed="13.50" pos="120.86" lane="e0_0" slope="0.00"/>
    </timestep>
    <timestep time="27.50">
        <vehicle id="background.0" x="264.79" y="-1.60" angle="90.00" type="human" speed="13.85" pos="264.79" lane="e0_0" slope="0.00"/>
        <vehicle id="background.1" x="208.94" y="-1.60" angle="90.00" type="human" speed="13.40" pos="208.94" lane="e0_0" slope="0.00"/>
        <vehicle id="background.2" x="127.70" y="-1.60" angle="90.00" type="human" speed="13.67" pos="127.70" lane="e0_0" slope="0.00"/>
    </timestep>
    <timestep time="28.00">
        <vehicle id="background.0" x="271.64" y="-1.60" angle="90.00" type="human" speed="13.71" pos="271.64" lane="e0_0" slope="0.00"/>
        <vehicle id="background.1" x="215.77" y="-1.60" angle="90.00" type="human" speed="13.65" pos="215.77" lane="e0_0" slope="0.00"/>
        <vehicle id="background.2" x="134.59" y="-1.60" angle="90.00" type="human" speed="13.80" pos="134.59" lane="e0_0" slope="0.00"/>
    </timestep>
    <timestep time="28.50">
        <vehicle id="background.0" x="278.42" y="-1.60" angle="90.00" type="human" speed="13.54" pos="278.42" lane="e0_0" slope="0.00"/>
        <vehicle id="background.1" x="222.56" y="-1.60" angle="90.00" type="human" speed="13.59" pos="222.56" lane="e0_0" slope="0.00"/>
        <vehicle id="background.2" x="141.39" y="-1.60" angle="90.00" type="human" speed="13.58" pos="141.39" lane="e0_0" slope="0.00"/>
    </timestep>
    <timestep time="29.00">
        <vehicle id="background.0" x="285.25" y="-1.60" angle="90.00" type="human" speed="13.67" pos="285.25" lane="e0_0" slope="0.00"/>
        <vehicle id="background.1" x="229.45" y="-1.60" angle="90.00" type="human" speed="13.77" pos="229.45" lane="e0_0" slope="0.00"/>
        <vehicle id="background.2" x="148.10" y="-1.60" angle="90.00" type="human" speed="13.43" pos="148.10" lane="e0_0" slope="0.00"/>
    </timestep>
    <timestep time="29.50">
        <vehicle id="background.0" x="292.14" y="-1.60" angle="90.00" type="human" speed="13.77" pos="292.14" lane="e0_0" slope="0.00"/>
        <vehicle id="background.1" x="236.36" y="-1.60" angle="90.00" type="human" speed="13.81" pos="236.36" lane="e0_0" slope="0.00"/>
        <vehicle id="background.2" x="154.95" y="-1.60" angle="90.00" type="human" speed="13.70" pos="154.95" lane="e0_0" slope="0.00"/>
    </timestep>
    <timestep time="30.00">
        <vehicle id="background.0" x="299.06" y="-1.60" angle="90.00" type="human" speed="13.85" pos="299.06" lane="e0_0" slope="0.00"/>
        <vehicle id="background.1" x="243.06" y="-1.60" angle="90.00" type="human" speed="13.41" pos="243.06" lane="e0_0" slope="0.00"/>
        <vehicle id="background.2" x="161.87" y="-1.60" angle="90.00" type="human" speed="13.83" pos="161.87" lane="e0_0" slope="0.00"/>
    </timestep>
    <timestep time="30.50">
        <vehicle id="background.0" x="305.76" y="-1.60" angle="90.00" type="human" speed="13.59" pos="5.76" lane="e1_0" slope="0.00"/>
        <vehicle id="background.1" x="249.93" y="-1.60" angle="90.00" type="human" speed="13.75" pos="249.93" lane="e0_0" slope="0.00"/>
        <vehicle id="background.2" x="168.73" y="-1.60" angle="90.00" type="human" speed="13.73" pos="168.73" lane="e0_0" slope="0.00"/>
    </timestep>
    <timestep time="31.00">
        <vehicle id="background.0" x="312.65" y="-1.60" angle="90.00" type="human" speed="13.78" pos="12.65" lane="e1_0" slope="0.00"/>
        <vehicle id="background.1" x="256.83" y="-1.60" angle="90.00" type="human" speed="13.79" pos="256.83" lane="e0_0" slope="0.00"/>
        <vehicle id="background.2" x="175.54" y="-1.60" angle="90.00" type="human" speed="13.62" pos="175.54" lane="e0_0" slope="0.00"/>
    </timestep>
    <timestep time="31.50">
        <vehicle id="background.0" x="319.45" y="-1.60" angle="90.00" type="human" speed="13.60" pos="19.45" lane="e1_0" slope="0.00"/>
        <vehicle id="background.1" x="263.55" y="-1.60" angle="90.00" type="human" speed="13.43" pos="263.55" lane="e0_0" slope="0.00"/>
        <vehicle id="background.2" x="182.30" y="-1.60" angle="90.00" type="human" speed="13.51" pos="182.30" lane="e0_0" slope="0.00"/>
    </timestep>
    <timestep time="32.00">
        <vehicle id="background.0" x="326.16" y="-1.60" angle="90.00" type="human" speed="13.43" pos="26.16" lane="e1_0" slope="0.00"/>
        <vehicle id="background.1" x="270.35" y="-1.60" angle="90.00" type="human" speed="13.62" pos="270.35" lane="e0_0" slope="0.00"/>
        <vehicle id="background.2" x="189.18" y="-1.60" angle="90.00" type="human" speed="13.77" pos="189.18" lane="e0_0" slope="0.00"/>
    </timestep>
    <timestep time="32.50">
        <vehicle id="background.0" x="332.97" y="-1.60" angle="90.00" type="human" speed="13.62" pos="32.97" lane="e1_0" slope="0.00"/>
        <vehicle id="background.1" x="277.27" y="-1.60" angle="90.00" type="human" speed="13.82" pos="277.27" lane="e0_0" slope="0.00"/>
        <vehicle id="background.2" x="195.93" y="-1.60" angle="90.00" type="human" speed="13.49" pos="195.93" lane="e0_0" slope="0.00"/>
    </timestep>
    <timestep time="33.00">
        <vehicle id="background.0" x="339.68" y="-1.60" angle="90.00" type="human" speed="13.42" pos="39.68" lane="e1_0" slope="0.00"/>
        <vehicle id="background.1" x="284.03" y="-1.60" angle="90.00" type="human" speed="13.53" pos="284.03" lane="e0_0" slope="0.00"/>
        <vehicle id="background.2" x="202.73" y="-1.60" angle="90.00" type="human" speed="13.61" pos="202.73" lane="e0_0" slope="0.00"/>
    </timestep>
    <timestep time="33.50">
        <vehicle id="background.0" x="346.59" y="-1.60" angle="90.00" type="human" speed="13.83" pos="46.59" lane="e1_0" slope="0.00"/>
        <vehicle id="background.1" x="290.87" y="-1.60" angle="90.00" type="human" speed="13.67" pos="290.87" lane="e0_0" slope="0.00"/>
        <vehicle id="background.2" x="209.47" y="-1.60" angle="90.00" type="human" speed="13.48" pos="209.47" lane="e0_0" slope="0.00"/>
    </timestep>
    <timestep time="34.00">
        <vehicle id="background.1" x="297.57" y="-1.60" angle="90.00" type="human" speed="13.40" pos="297.57" lane="e0_0" slope="0.00"/>
        <vehicle id="background.2" x="216.21" y="-1.60" angle="90.00" type="human" speed="13.47" pos="216.21" lane="e0_0" slope="0.00"/>
    </timestep>
    <timestep time="34.50">
        <vehicle id="background.1" x="304.28" y="-1.60" angle="90.00" type="human" speed="13.62" pos="4.28" lane="e1_0" slope="0.00"/>
        <vehicle id="background.2" x="223.06" y="-1.60" angle="90.00" type="human" speed="13.71" pos="223.06" lane="e0_0" slope="0.00"/>
    </timestep>
    <timestep time="35.00">
        <vehicle id="background.1" x="311.15" y="-1.60" angle="90.00" type="human" speed="13.75" pos="11.15" lane="e1_0" slope="0.00"/>
        <vehicle id="background.2" x="229.86" y="-1.60" angle="90.00" type="human" speed="13.60" pos="229.86" lane="e0_0" slope="0.00"/>
    </timestep>
    <timestep time="35.50">
        <vehicle id="background.1" x="317.91" y="-1.60" angle="90.00" type="human" speed="13.51" pos="17.91" lane="e1_0" slope="0.00"/>
        <vehicle id="background.2" x="236.71" y="-1.60" angle="90.00" type="human" speed="13.71" pos="236.71" lane="e0_0" slope="0.00"/>
    </timestep>
    <timestep time="36.00">
        <vehicle id="background.1" x="324.62" y="-1.60" angle="90.00" type="human" speed="13.43" pos="24.62" lane="e1_0" slope="0.00"/>
        <vehicle id="background.2" x="243.44" y="-1.60" angle="90.00" type="human" speed="13.45" pos="243.44" lane="e0_0" slope="0.00"/>
    </timestep>
    <timestep time="36.50">
        <vehicle id="background.1" x="331.39" y="-1.60" angle="90.00" type="human" speed="13.53" pos="31.39" lane="e1_0" slope="0.00"/>
        <vehicle id="background.2" x="250.38" y="-1.60" angle="90.00" type="human" speed="13.89" pos="250.38" lane="e0_0" slope="0.00"/>
    </timestep>
    <timestep time="37.00">
        <vehicle id="background.1" x="338.21" y="-1.60" angle="90.00" type="human" speed="13.65" pos="38.21" lane="e1_0" slope="0.00"/>
        <vehicle id="background.2" x="257.30" y="-1.60" angle="90.00" type="human" speed="13.85" pos="257.30" lane="e0_0" slope="0.00"/>
    </timestep>
    <timestep time="37.50">
        <vehicle id="background.1" x="345.06" y="-1.60" angle="90.00" type="human" speed="13.70" pos="45.06" lane="e1_0" slope="0.00"/>
        <vehicle id="background.2" x="264.04" y="-1.60" angle="90.00" type="human" speed="13.48" pos="264.04" lane="e0_0" slope="0.00"/>
    </timestep>
    <timestep time="38.00">
        <vehicle id="background.2" x="270.83" y="-1.60" angle="90.00" type="human" speed="13.57" pos="270.83" lane="e0_0" slope="0.00"/>
    </timestep>
    <timestep time="38.50">
        <vehicle id="background.2" x="277.66" y="-1.60" angle="90.00" type="human" speed="13.66" pos="277.66" lane="e0_0" slope="0.00"/>
    </timestep>
    <timestep time="39.00">
        <vehicle id="background.2" x="284.57" y="-1.60" angle="90.00" type="human" speed="13.83" pos="284.57" lane="e0_0" slope="0.00"/>
    </timestep>
    <timestep time="39.50">
        <vehicle id="background.2" x="291.32" y="-1.60" angle="90.00" type="human" speed="13.49" pos="291.32" lane="e0_0" slope="0.00"/>
    </timestep>
    <timestep time="40.00">
        <vehicle id="background.2" x="298.16" y="-1.60" angle="90.00" type="human" speed="13.68" pos="298.16" lane="e0_0" slope="0.00"/>
    </timestep>
    <timestep time="40.50">
        <vehicle id="background.2" x="304.76" y="-1.60" angle="90.00" type="human" speed="13.40" pos="4.76" lane="e1_0" slope="0.00"/>
        <vehicle id="ego" x="5.10" y="-1.60" angle="90.00" type="ego_type" speed="0.00" pos="5.10" lane="e0_0" slope="0.00"/>
    </timestep>
    <timestep time="41.00">
        <vehicle id="background.2" x="311.67" y="-1.60" angle="90.00" type="human" speed="13.82" pos="11.67" lane="e1_0" slope="0.00"/>
        <vehicle id="ego" x="5.10" y="-1.60" angle="90.00" type="ego_type" speed="0.00" pos="5.10" lane="e0_0" slope="0.00"/>
    </timestep>
    <timestep time="41.50">
        <vehicle id="background.2" x="318.50" y="-1.60" angle="90.00" type="human" speed="13.66" pos="18.50" lane="e1_0" slope="0.00"/>
        <vehicle id="ego" x="5.10" y="-1.60" angle="90.00" type="ego_type" speed="0.00" pos="5.10" lane="e0_0" slope="0.00"/>
    </timestep>
    <timestep time="42.00">
        <vehicle id="background.2" x="325.36" y="-1.60" angle="90.00" type="human" speed="13.72" pos="25.36" lane="e1_0" slope="0.00"/>
        <vehicle id="ego" x="5.10" y="-1.60" angle="90.00" type="ego_type" speed="0.00" pos="5.10" lane="e0_0" slope="0.00"/>
    </timestep>
    <timestep time="42.50">
        <vehicle id="background.2" x="332.09" y="-1.60" angle="90.00" type="human" speed="13.46" pos="32.09" lane="e1_0" slope="0.00"/>
        <vehicle id="ego" x="5.10" y="-1.60" angle="90.00" type="ego_type" speed="0.00" pos="5.10" lane="e0_0" slope="0.00"/>
    </timestep>
    <timestep time="43.00">
        <vehicle id="background.2" x="339.03" y="-1.60" angle="90.00" type="human" speed="13.88" pos="39.03" lane="e1_0" slope="0.00"/>
        <vehicle id="ego" x="5.10" y="-1.60" angle="90.00" type="ego_type" speed="0.00" pos="5.10" lane="e0_0" slope="0.00"/>
    </timestep>
    <timestep time="43.50">
        <vehicle id="background.2" x="345.77" y="-1.60" angle="90.00" type="human" speed="13.48" pos="45.77" lane="e1_0" slope="0.00"/>
        <vehicle id="ego" x="5.10" y="-1.60" angle="90.00" type="ego_type" speed="0.00" pos="5.10" lane="e0_0" slope="0.00"/>
    </timestep>
    <timestep time="44.00">
        <vehicle id="ego" x="5.10" y="-1.60" angle="90.00" type="ego_type" speed="0.00" pos="5.10" lane="e0_0" slope="0.00"/>
    </timestep>
    <timestep time="44.50">
        <vehicle id="ego" x="5.10" y="-1.60" angle="90.00" type="ego_type" speed="0.00" pos="5.10" lane="e0_0" slope="0.00"/>
    </timestep>
    <timestep time="45.00">
        <vehicle id="ego" x="5.10" y="-1.60" angle="90.00" type="ego_type" speed="0.00" pos="5.10" lane="e0_0" slope="0.00"/>
    </timestep>
    <timestep time="45.50">
        <vehicle id="ego" x="5.10" y="-1.60" angle="90.00" type="ego_type" speed="0.00" pos="5.10" lane="e0_0" slope="0.00"/>
    </timestep>
    <timestep time="46.00">
        <vehicle id="ego" x="5.10" y="-1.60" angle="90.00" type="ego_type" speed="0.00" pos="5.10" lane="e0_0" slope="0.00"/>
    </timestep>
    <timestep time="46.50">
        <vehicle id="ego" x="5.10" y="-1.60" angle="90.00" type="ego_type" speed="0.00" pos="5.10" lane="e0_0" slope="0.00"/>
    </timestep>
    <timestep time="47.00">
        <vehicle id="ego" x="5.10" y="-1.60" angle="90.00" type="ego_type" speed="0.00" pos="5.10" lane="e0_0" slope="0.00"/>
    </timestep>
    <timestep time="47.50">
        <vehicle id="ego" x="5.10" y="-1.60" angle="90.00" type="ego_type" speed="0.00" pos="5.10" lane="e0_0" slope="0.00"/>
    </timestep>
    <timestep time="48.00">
        <vehicle id="ego" x="5.10" y="-1.60" angle="90.00" type="ego_type" speed="0.00" pos="5.10" lane="e0_0" slope="0.00"/>
    </timestep>
    <timestep time="48.50">
        <vehicle id="ego" x="5.10" y="-1.60" angle="90.00" type="ego_type" speed="0.00" pos="5.10" lane="e0_0" slope="0.00"/>
    </timestep>
    <timestep time="49.00">
        <vehicle id="ego" x="5.10" y="-1.60" angle="90.00" type="ego_type" speed="0.00" pos="5.10" lane="e0_0" slope="0.00"/>
    </timestep>
    <timestep time="49.50">
        <vehicle id="ego" x="5.10" y="-1.60" angle="90.00" type="ego_type" speed="0.00" pos="5.10" lane="e0_0" slope="0.00"/>
    </timestep>
    <timestep time="50.00">
        <vehicle id="ego" x="5.10" y="-1.60" angle="90.00" type="ego_type" speed="0.00" pos="5.10" lane="e0_0" slope="0.00"/>
    </timestep>
    <timestep time="50.50">
        <vehicle id="ego" x="5.10" y="-1.60" angle="90.00" type="ego_type" speed="0.00" pos="5.10" lane="e0_0" slope="0.00"/>
    </timestep>
    <timestep time="51.00">
        <vehicle id="ego" x="5.10" y="-1.60" angle="90.00" type="ego_type" speed="0.00" pos="5.10" lane="e0_0" slope="0.00"/>
    </timestep>
    <timestep time="51.50">
        <vehicle id="ego" x="5.10" y="-1.60" angle="90.00" type="ego_type" speed="0.00" pos="5.10" lane="e0_0" slope="0.00"/>
    </timestep>
    <timestep time="52.00">
        <vehicle id="ego" x="5.10" y="-1.60" angle="90.00" type="ego_type" speed="0.00" pos="5.10" lane="e0_0" slope="0.00"/>
    </timestep>
    <timestep time="52.50">
        <vehicle id="ego" x="5.10" y="-1.60" angle="90.00" type="ego_type" speed="0.00" pos="5.10" lane="e0_0" slope="0.00"/>
    </timestep>
    <timestep time="53.00">
        <vehicle id="ego" x="5.10" y="-1.60" angle="90.00" type="ego_type" speed="0.00" pos="5.10" lane="e0_0" slope="0.00"/>
    </timestep>
    <timestep time="53.50">
        <vehicle id="ego" x="5.10" y="-1.60" angle="90.00" type="ego_type" speed="0.00" pos="5.10" lane="e0_0" slope="0.00"/>
    </timestep>
    <timestep time="54.00">