<?xml version="1.0" encoding="UTF-8"?>

<!-- generated on 2026-05-13 21:30:47 by Eclipse SUMO sumo Version 1.24.0
<sumoConfiguration xmlns:xsi="http://www.w3.org/2001/XMLSchema-instance" xsi:noNamespaceSchemaLocation="http://sumo.dlr.de/xsd/sumoConfiguration.xsd">

    <input>
        <net-file value="scenarios/simple_arterial/simple_arterial.net.xml"/>
        <route-files value="scenarios/simple_arterial/simple_arterial.rou.xml"/>
        <additional-files value="scenarios/simple_arterial/simple_arterial.tls.xml"/>
    </input>

    <output>
        <fcd-output value="runs/fcd_rlhf/episode_00014_seed_214.fcd.xml"/>
    </output>

    <time>
        <begin value="0"/>
        <end value="900"/>
        <step-length value="0.5"/>
    </time>

    <report>
        <no-warnings value="true"/>
    </report>

    <traci_server>
        <remote-port value="22810"/>
    </traci_server>

    <random_number>
        <seed value="214"/>
    </random_number>

</sumoConfiguration>
-->

<fcd-export xmlns:xsi="http://www.w3.org/2001/XMLSchema-instance" xsi:noNamespaceSchemaLocation="http://sumo.dlr.de/xsd/fcd_file.xsd">
    <timestep time="0.00"/>
    <timestep time="0.50"/>
    <timestep time="1.00"/>
    <timestep time="1.50"/>
    <timestep time="2.00"/>
    <timestep time="2.50"/>
    <timestep time="3.00"/>
    <timestep time="3.50"/>
    <timestep time="4.00"/>
    <timestep time="4.50"/>
    <timestep time="5.00"/>
    <timestep time="5.50"/>
    <timestep time="6.00"/>
    <timestep time="6.50"/>
    <timestep time="7.00">
        <vehicle id="background.0" x="5.10" y="-1.60" angle="90.00" type="human" speed="13.27" pos="5.10" lane="e0_0" slope="0.00"/>
    </timestep>
    <timestep time="7.50">
        <vehicle id="background.0" x="11.70" y="-1.60" angle="90.00" type="human" speed="13.19" pos="11.70" lane="e0_0" slope="0.00"/>
    </timestep>
    <timestep time="8.00">
        <vehicle id="background.0" x="18.32" y="-1.60" angle="90.00" type="human" speed="13.24" pos="18.32" lane="e0_0" slope="0.00"/>
    </timestep>
    <timestep time="8.50">
        <vehicle id="background.0" x="24.83" y="-1.60" angle="90.00" type="human" speed="13.03" pos="24.83" lane="e0_0" slope="0.00"/>
    </timestep>
    <timestep time="9.00">
        <vehicle id="background.0" x="31.32" y="-1.60" angle="90.00" type="human" speed="12.99" pos="31.32" lane="e0_0" slope="0.00"/>
        <vehicle id="ego" x="5.10" y="-1.60" angle="90.00" type="ego_type" speed="0.00" pos="5.10" lane="e0_0" slope="0.00"/>
    </timestep>
    <timestep time="9.50">
        <vehicle id="background.0" x="37.92" y="-1.60" angle="90.00" type="human" speed="13.18" pos="37.92" lane="e0_0" slope="0.00"/>
        <vehicle id="ego" x="5.10" y="-1.60" angle="90.00" type="ego_type" speed="0.00" pos="5.10" lane="e0_0" slope="0.00"/>
    </timestep>
    <timestep time="10.00">
        <vehicle id="background.0" x="44.50" y="-1.60" angle="90.00" type="human" speed="13.17" pos="44.50" lane="e0_0" slope="0.00"/>
        <vehicle id="ego" x="5.10" y="-1.60" angle="90.00" type="ego_type" speed="0.00" pos="5.10" lane="e0_0" slope="0.00"/>
    </timestep>
    <timestep time="10.50">
        <vehicle id="background.0" x="51.08" y="-1.60" angle="90.00" type="human" speed="13.16" pos="51.08" lane="e0_0" slope="0.00"/>
        <vehicle id="ego" x="5.10" y="-1.60" angle="90.00" type="ego_type" speed="0.00" pos="5.10" lane="e0_0" slope="0.00"/>
    </timestep>
    <timestep time="11.00">
        <vehicle id="background.0" x="57.69" y="-1.60" angle="90.00" type="human" speed="13.23" pos="57.69" lane="e0_0" slope="0.00"/>
        <vehicle id="ego" x="5.10" y="-1.60" angle="90.00" type="ego_type" speed="0.00" pos="5.10" lane="e0_0" slope="0.00"/>
    </timestep>
    <timestep time="11.50">
        <vehicle id="background.0" x="64.10" y="-1.60" angle="90.00" type="human" speed="12.81" pos="64.10" lane="e0_0" slope="0.00"/>
        <vehicle id="ego" x="5.10" y="-1.60" angle="90.00" type="ego_type" speed="0.00" pos="5.10" lane="e0_0" slope="0.00"/>
    </timestep>
    <timestep time="12.00">
        <vehicle id="background.0" x="70.59" y="-1.60" angle="90.00" type="human" speed="12.97" pos="70.59" lane="e0_0" slope="0.00"/>
        <vehicle id="ego" x="5.10" y="-1.60" angle="90.00" type="ego_type" speed="0.00" pos="5.10" lane="e0_0" slope="0.00"/>
    </timestep>
    <timestep time="12.50">
        <vehicle id="background.0" x="77.14" y="-1.60" angle="90.00" type="human" speed="13.12" pos="77.14" lane="e0_0" slope="0.00"/>
        <vehicle id="ego" x="5.10" y="-1.60" angle="90.00" type="ego_type" speed="0.00" pos="5.10" lane="e0_0" slope="0.00"/>
    </timestep>
    <timestep time="13.00">
        <vehicle id="background.0" x="83.59" y="-1.60" angle="90.00" type="human" speed="12.90" pos="83.59" lane="e0_0" slope="0.00"/>
        <vehicle id="ego" x="5.10" y="-1.60" angle="90.00" type="ego_type" speed="0.00" pos="5.10" lane="e0_0" slope="0.00"/>
    </timestep>
    <timestep time="13.50">
        <vehicle id="background.0" x="90.03" y="-1.60" angle="90.00" type="human" speed="12.87" pos="90.03" lane="e0_0" slope="0.00"/>
        <vehicle id="ego" x="5.10" y="-1.60" angle="90.00" type="ego_type" speed="0.00" pos="5.10" lane="e0_0" slope="0.00"/>
    </timestep>
    <timestep time="14.00">
        <vehicle id="background.0" x="96.56" y="-1.60" angle="90.00" type="human" speed="13.08" pos="96.56" lane="e0_0" slope="0.00"/>
        <vehicle id="ego" x="5.10" y="-1.60" angle="90.00" type="ego_type" speed="0.00" pos="5.10" lane="e0_0" slope="0.00"/>
    </timestep>
    <timestep time="14.50">
        <vehicle id="background.0" x="103.10" y="-1.60" angle="90.00" type="human" speed="13.06" pos="103.10" lane="e0_0" slope="0.00"/>
        <vehicle id="ego" x="5.10" y="-1.60" angle="90.00" type="ego_type" speed="0.00" pos="5.10" lane="e0_0" slope="0.00"/>
    </timestep>
    <timestep time="15.00">
        <vehicle id="background.0" x="109.69" y="-1.60" angle="90.00" type="human" speed="13.19" pos="109.69" lane="e0_0" slope="0.00"/>
        <vehicle id="ego" x="5.10" y="-1.60" angle="90.00" type="ego_type" speed="0.00" pos="5.10" lane="e0_0" slope="0.00"/>
    </timestep>
    <timestep time="15.50">
        <vehicle id="background.0" x="116.13" y="-1.60" angle="90.00" type="human" speed="12.89" pos="116.13" lane="e0_0" slope="0.00"/>
        <vehicle id="ego" x="5.35" y="-1.60" angle="90.00" type="ego_type" speed="0.50" pos="5.35" lane="e0_0" slope="0.00"/>
    </timestep>
    <timestep time="16.00">
        <vehicle id="background.0" x="122.67" y="-1.60" angle="90.00" type="human" speed="13.07" pos="122.67" lane="e0_0" slope="0.00"/>
        <vehicle id="ego" x="5.85" y="-1.60" angle="90.00" type="ego_type" speed="1.00" pos="5.85" lane="e0_0" slope="0.00"/>
    </timestep>
    <timestep time="16.50">
        <vehicle id="background.0" x="129.22" y="-1.60" angle="90.00" type="human" speed="13.09" pos="129.22" lane="e0_0" slope="0.00"/>
        <vehicle id="ego" x="6.60" y="-1.60" angle="90.00" type="ego_type" speed="1.50" pos="6.60" lane="e0_0" slope="0.00"/>
    </timestep>
    <timestep time="17.00">
        <vehicle id="background.0" x="135.75" y="-1.60" angle="90.00" type="human" speed="13.07" pos="135.75" lane="e0_0" slope="0.00"/>
        <vehicle id="ego" x="7.60" y="-1.60" angle="90.00" type="ego_type" speed="2.00" pos="7.60" lane="e0_0" slope="0.00"/>
    </timestep>
    <timestep time="17.50">
        <vehicle id="background.0" x="142.32" y="-1.60" angle="90.00" type="human" speed="13.13" pos="142.32" lane="e0_0" slope="0.00"/>
        <vehicle id="ego" x="8.85" y="-1.60" angle="90.00" type="ego_type" speed="2.50" pos="8.85" lane="e0_0" slope="0.00"/>
    </timestep>
    <timestep time="18.00">
        <vehicle id="background.0" x="148.95" y="-1.60" angle="90.00" type="human" speed="13.27" pos="148.95" lane="e0_0" slope="0.00"/>
        <vehicle id="ego" x="10.35" y="-1.60" angle="90.00" type="ego_type" speed="3.00" pos="10.35" lane="e0_0" slope="0.00"/>
    </timestep>
    <timestep time="18.50">
        <vehicle id="background.0" x="155.50" y="-1.60" angle="90.00" type="human" speed="13.11" pos="155.50" lane="e0_0" slope="0.00"/>
        <vehicle id="ego" x="12.10" y="-1.60" angle="90.00" type="ego_type" speed="3.50" pos="12.10" lane="e0_0" slope="0.00"/>
    </timestep>
    <timestep time="19.00">
        <vehicle id="background.0" x="162.08" y="-1.60" angle="90.00" type="human" speed="13.16" pos="162.08" lane="e0_0" slope="0.00"/>
        <vehicle id="background.1" x="5.10" y="-1.60" angle="90.00" type="human" speed="2.33" pos="5.10" lane="e0_0" slope="0.00"/>
        <vehicle id="ego" x="14.10" y="-1.60" angle="90.00" type="ego_type" speed="4.00" pos="14.10" lane="e0_0" slope="0.00"/>
    </timestep>
    <timestep time="19.50">
        <vehicle id="background.0" x="168.60" y="-1.60" angle="90.00" type="human" speed="13.04" pos="168.60" lane="e0_0" slope="0.00"/>
        <vehicle id="background.1" x="6.13" y="-1.60" angle="90.00" type="human" speed="2.05" pos="6.13" lane="e0_0" slope="0.00"/>
        <vehicle id="ego" x="16.35" y="-1.60" angle="90.00" type="ego_type" speed="4.50" pos="16.35" lane="e0_0" slope="0.00"/>
    </timestep>
    <timestep time="20.00">
        <vehicle id="background.0" x="175.20" y="-1.60" angle="90.00" type="human" speed="13.20" pos="175.20" lane="e0_0" slope="0.00"/>
        <vehicle id="background.1" x="7.51" y="-1.60" angle="90.00" type="human" speed="2.78" pos="7.51" lane="e0_0" slope="0.00"/>
        <vehicle id="ego" x="18.85" y="-1.60" angle="90.00" type="ego_type" speed="5.00" pos="18.85" lane="e0_0" slope="0.00"/>
    </timestep>
    <timestep time="20.50">
        <vehicle id="background.0" x="181.61" y="-1.60" angle="90.00" type="human" speed="12.83" pos="181.61" lane="e0_0" slope="0.00"/>
        <vehicle id="background.1" x="9.28" y="-1.60" angle="90.00" type="human" speed="3.54" pos="9.28" lane="e0_0" slope="0.00"/>
        <vehicle id="ego" x="20.98" y="-1.60" angle="90.00" type="ego_type" speed="4.25" pos="20.98" lane="e0_0" slope="0.00"/>
    </timestep>
    <timestep time="21.00">
        <vehicle id="background.0" x="188.13" y="-1.60" angle="90.00" type="human" speed="13.03" pos="188.13" lane="e0_0" slope="0.00"/>
        <vehicle id="background.1" x="11.24" y="-1.60" angle="90.00" type="human" speed="3.92" pos="11.24" lane="e0_0" slope="0.00"/>
        <vehicle id="ego" x="22.35" y="-1.60" angle="90.00" type="ego_type" speed="2.75" pos="22.35" lane="e0_0" slope="0.00"/>
    </timestep>
    <timestep time="21.50">
        <vehicle id="background.0" x="194.70" y="-1.60" angle="90.00" type="human" speed="13.14" pos="194.70" lane="e0_0" slope="0.00"/>
        <vehicle id="background.1" x="12.66" y="-1.60" angle="90.00" type="human" speed="2.82" pos="12.66" lane="e0_0" slope="0.00"/>
        <vehicle id="ego" x="23.73" y="-1.60" angle="90.00" type="ego_type" speed="2.75" pos="23.73" lane="e0_0" slope="0.00"/>
    </timestep>
    <timestep time="22.00">
        <vehicle id="background.0" x="201.30" y="-1.60" angle="90.00" type="human" speed="13.19" pos="201.30" lane="e0_0" slope="0.00"/>
        <vehicle id="background.1" x="14.26" y="-1.60" angle="90.00" type="human" speed="3.20" pos="14.26" lane="e0_0" slope="0.00"/>
        <vehicle id="ego" x="25.10" y="-1.60" angle="90.00" type="ego_type" speed="2.75" pos="25.10" lane="e0_0" slope="0.00"/>
    </timestep>
    <timestep time="22.50">
        <vehicle id="background.0" x="207.85" y="-1.60" angle="90.00" type="human" speed="13.10" pos="207.85" lane="e0_0" slope="0.00"/>
        <vehicle id="background.1" x="15.58" y="-1.60" angle="90.00" type="human" speed="2.65" pos="15.58" lane="e0_0" slope="0.00"/>
        <vehicle id="ego" x="26.48" y="-1.60" angle="90.00" type="ego_type" speed="2.75" pos="26.48" lane="e0_0" slope="0.00"/>
    </timestep>
    <timestep time="23.00">
        <vehicle id="background.0" x="214.41" y="-1.60" angle="90.00" type="human" speed="13.12" pos="214.41" lane="e0_0" slope="0.00"/>
        <vehicle id="background.1" x="17.07" y="-1.60" angle="90.00" type="human" speed="2.98" pos="17.07" lane="e0_0" slope="0.00"/>
        <vehicle id="ego" x="27.85" y="-1.60" angle="90.00" type="ego_type" speed="2.75" pos="27.85" lane="e0_0" slope="0.00"/>
    </timestep>
    <timestep time="23.50">
        <vehicle id="background.0" x="220.84" y="-1.60" angle="90.00" type="human" speed="12.86" pos="220.84" lane="e0_0" slope="0.00"/>
        <vehicle id="background.1" x="18.44" y="-1.60" angle="90.00" type="human" speed="2.74" pos="18.44" lane="e0_0" slope="0.00"/>
        <vehicle id="ego" x="29.22" y="-1.60" angle="90.00" type="ego_type" speed="2.75" pos="29.23" lane="e0_0" slope="0.00"/>
    </timestep>
    <timestep time="24.00">
        <vehicle id="background.0" x="227.24" y="-1.60" angle="90.00" type="human" speed="12.81" pos="227.24" lane="e0_0" slope="0.00"/>
        <vehicle id="background.1" x="19.79" y="-1.60" angle="90.00" type="human" speed="2.69" pos="19.79" lane="e0_0" slope="0.00"/>
        <vehicle id="ego" x="30.60" y="-1.60" angle="90.00" type="ego_type" speed="2.75" pos="30.60" lane="e0_0" slope="0.00"/>
    </timestep>
    <timestep time="24.50">
        <vehicle id="background.0" x="233.72" y="-1.60" angle="90.00" type="human" speed="12.94" pos="233.72" lane="e0_0" slope="0.00"/>
        <vehicle id="background.1" x="21.17" y="-1.60" angle="90.00" type="human" speed="2.76" pos="21.17" lane="e0_0" slope="0.00"/>
        <vehicle id="ego" x="31.98" y="-1.60" angle="90.00" type="ego_type" speed="2.75" pos="31.98" lane="e0_0" slope="0.00"/>
    </timestep>
    <timestep time="25.00">
        <vehicle id="background.0" x="240.18" y="-1.60" angle="90.00" type="human" speed="12.92" pos="240.18" lane="e0_0" slope="0.00"/>
        <vehicle id="background.1" x="22.67" y="-1.60" angle="90.00" type="human" speed="3.01" pos="22.67" lane="e0_0" slope="0.00"/>
        <vehicle id="ego" x="33.35" y="-1.60" angle="90.00" type="ego_type" speed="2.75" pos="33.35" lane="e0_0" slope="0.00"/>
    </timestep>
    <timestep time="25.50">
        <vehicle id="background.0" x="246.64" y="-1.60" angle="90.00" type="human" speed="12.92" pos="246.64" lane="e0_0" slope="0.00"/>
        <vehicle id="background.1" x="24.15" y="-1.60" angle="90.00" type="human" speed="2.95" pos="24.15" lane="e0_0" slope="0.00"/>
        <vehicle id="ego" x="34.73" y="-1.60" angle="90.00" type="ego_type" speed="2.75" pos="34.73" lane="e0_0" slope="0.00"/>
    </timestep>
    <timestep time="26.00">
        <vehicle id="background.0" x="253.09" y="-1.60" angle="90.00" type="human" speed="12.91" pos="253.09" lane="e0_0" slope="0.00"/>
        <vehicle id="background.1" x="25.51" y="-1.60" angle="90.00" type="human" speed="2.73" pos="25.51" lane="e0_0" slope="0.00"/>
        <vehicle id="ego" x="36.10" y="-1.60" angle="90.00" type="ego_type" speed="2.75" pos="36.10" lane="e0_0" slope="0.00"/>
    </timestep>
    <timestep time="26.50">
        <vehicle id="background.0" x="259.70" y="-1.60" angle="90.00" type="human" speed="13.22" pos="259.70" lane="e0_0" slope="0.00"/>
        <vehicle id="background.1" x="26.76" y="-1.60" angle="90.00" type="human" speed="2.49" pos="26.76" lane="e0_0" slope="0.00"/>
        <vehicle id="ego" x="37.48" y="-1.60" angle="90.00" type="ego_type" speed="2.75" pos="37.48" lane="e0_0" slope="0.00"/>
    </timestep>
    <timestep time="27.00">
        <vehicle id="background.0" x="266.26" y="-1.60" angle="90.00" type="human" speed="13.13" pos="266.26" lane="e0_0" slope="0.00"/>
        <vehicle id="background.1" x="28.13" y="-1.60" angle="90.00" type="human" speed="2.75" pos="28.13" lane="e0_0" slope="0.00"/>
        <vehicle id="ego" x="38.85" y="-1.60" angle="90.00" type="ego_type" speed="2.75" pos="38.85" lane="e0_0" slope="0.00"/>
    </timestep>
    <timestep time="27.50">
        <vehicle id="background.0" x="272.81" y="-1.60" angle="90.00" type="human" speed="13.10" pos="272.81" lane="e0_0" slope="0.00"/>
        <vehicle id="background.1" x="29.63" y="-1.60" angle="90.00" type="human" speed="2.99" pos="29.63" lane="e0_0" slope="0.00"/>
        <vehicle id="ego" x="40.23" y="-1.60" angle="90.00" type="ego_type" speed="2.75" pos="40.23" lane="e0_0" slope="0.00"/>
    </timestep>
    <timestep time="28.00">
        <vehicle id="background.0" x="279.20" y="-1.60" angle="90.00" type="human" speed="12.78" pos="279.20" lane="e0_0" slope="0.00"/>
        <vehicle id="background.1" x="30.90" y="-1.60" angle="90.00" type="human" speed="2.56" pos="30.90" lane="e0_0" slope="0.00"/>
        <vehicle id="ego" x="41.60" y="-1.60" angle="90.00" type="ego_type" speed="2.75" pos="41.60" lane="e0_0" slope="0.00"/>
    </timestep>
    <timestep time="28.50">
        <vehicle id="background.0" x="285.80" y="-1.60" angle="90.00" type="human" speed="13.19" pos="285.80" lane="e0_0" slope="0.00"/>
        <vehicle id="background.1" x="32.33" y="-1.60" angle="90.00" type="human" speed="2.86" pos="32.33" lane="e0_0" slope="0.00"/>
        <vehicle id="ego" x="42.98" y="-1.60" angle="90.00" type="ego_type" speed="2.75" pos="42.98" lane="e0_0" slope="0.00"/>
    </timestep>
    <timestep time="29.00">
        <vehicle id="background.0" x="292.35" y="-1.60" angle="90.00" type="human" speed="13.11" pos="292.35" lane="e0_0" slope="0.00"/>
        <vehicle id="background.1" x="33.82" y="-1.60" angle="90.00" type="human" speed="2.96" pos="33.82" lane="e0_0" slope="0.00"/>
        <vehicle id="ego" x="44.35" y="-1.60" angle="90.00" type="ego_type" speed="2.75" pos="44.35" lane="e0_0" slope="0.00"/>
    </timestep>
    <timestep time="29.50">
        <vehicle id="background.0" x="298.81" y="-1.60" angle="90.00" type="human" speed="12.92" pos="298.81" lane="e0_0" slope="0.00"/>
        <vehicle id="background.1" x="35.19" y="-1.60" angle="90.00" type="human" speed="2.75" pos="35.19" lane="e0_0" slope="0.00"/>
        <vehicle id="ego" x="45.73" y="-1.60" angle="90.00" type="ego_type" speed="2.75" pos="45.73" lane="e0_0" slope="0.00"/>
    </timestep>
    <timestep time="30.00">
        <vehicle id="background.0" x="305.19" y="-1.60" angle="90.00" type="human" speed="12.95" pos="5.19" lane="e1_0" slope="0.00"/>
        <vehicle id="background.1" x="36.66" y="-1.60" angle="90.00" type="human" speed="2.93" pos="36.66" lane="e0_0" slope="0.00"/>
        <vehicle id="ego" x="47.10" y="-1.60" angle="90.00" type="ego_type" speed="2.75" pos="47.10" lane="e0_0" slope="0.00"/>
    </timestep>
    <timestep time="30.50">
        <vehicle id="background.0" x="311.81" y="-1.60" angle="90.00" type="human" speed="13.25" pos="11.81" lane="e1_0" slope="0.00"/>
        <vehicle id="background.1" x="38.05" y="-1.60" angle="90.00" type="human" speed="2.77" pos="38.05" lane="e0_0" slope="0.00"/>
        <vehicle id="ego" x="48.48" y="-1.60" angle="90.00" type="ego_type" speed="2.75" pos="48.48" lane="e0_0" slope="0.00"/>
    </timestep>
    <timestep time="31.00">
        <vehicle id="background.0" x="318.35" y="-1.60" angle="90.00" type="human" speed="13.06" pos="18.35" lane="e1_0" slope="0.00"/>
        <vehicle id="background.1" x="39.42" y="-1.60" angle="90.00" type="human" speed="2.75" pos="39.42" lane="e0_0" slope="0.00"/>
        <vehicle id="ego" x="50.35" y="-1.60" angle="90.00" type="ego_type" speed="3.75" pos="50.35" lane="e0_0" slope="0.00"/>
    </timestep>
    <timestep time="31.50">
        <vehicle id="background.0" x="324.79" y="-1.60" angle="90.00" type="human" speed="12.88" pos="24.79" lane="e1_0" slope="0.00"/>
        <vehicle id="background.1" x="41.06" y="-1.60" angle="90.00" type="human" speed="3.27" pos="41.06" lane="e0_0" slope="0.00"/>
        <vehicle id="ego" x="52.23" y="-1.60" angle="90.00" type="ego_type" speed="3.75" pos="52.23" lane="e0_0" slope="0.00"/>
    </timestep>
    <timestep time="32.00">
        <vehicle id="background.0" x="331.18" y="-1.60" angle="90.00" type="human" speed="12.79" pos="31.18" lane="e1_0" slope="0.00"/>
        <vehicle id="background.1" x="42.75" y="-1.60" angle="90.00" type="human" speed="3.38" pos="42.75" lane="e0_0" slope="0.00"/>
        <vehicle id="ego" x="54.10" y="-1.60" angle="90.00" type="ego_type" speed="3.75" pos="54.10" lane="e0_0" slope="0.00"/>
    </timestep>
    <timestep time="32.50">
        <vehicle id="background.0" x="337.65" y="-1.60" angle="90.00" type="human" speed="12.93" pos="37.65" lane="e1_0" slope="0.00"/>
        <vehicle id="background.1" x="44.41" y="-1.60" angle="90.00" type="human" speed="3.33" pos="44.41" lane="e0_0" slope="0.00"/>
        <vehicle id="ego" x="55.98" y="-1.60" angle="90.00" type="ego_type" speed="3.75" pos="55.98" lane="e0_0" slope="0.00"/>
    </timestep>
    <timestep time="33.00">
        <vehicle id="background.0" x="344.03" y="-1.60" angle="90.00" type="human" speed="12.78" pos="44.03" lane="e1_0" slope="0.00"/>
        <vehicle id="background.1" x="46.24" y="-1.60" angle="90.00" type="human" speed="3.66" pos="46.24" lane="e0_0" slope="0.00"/>
        <vehicle id="ego" x="57.85" y="-1.60" angle="90.00" type="ego_type" speed="3.75" pos="57.85" lane="e0_0" slope="0.00"/>
    </timestep>
    <timestep time="33.50">
        <vehicle id="background.1" x="48.10" y="-1.60" angle="90.00" type="human" speed="3.72" pos="48.10" lane="e0_0" slope="0.00"/>
        <vehicle id="ego" x="59.73" y="-1.60" angle="90.00" type="ego_type" speed="3.75" pos="59.73" lane="e0_0" slope="0.00"/>
    </timestep>
    <timestep time="34.00">
        <vehicle id="background.1" x="49.93" y="-1.60" angle="90.00" type="human" speed="3.65" pos="49.93" lane="e0_0" slope="0.00"/>
        <vehicle id="background.2" x="5.10" y="-1.60" angle="90.00" type="human" speed="12.66" pos="5.10" lane="e0_0" slope="0.00"/>
        <vehicle id="ego" x="61.60" y="-1.60" angle="90.00" type="ego_type" speed="3.75" pos="61.60" lane="e0_0" slope="0.00"/>
    </timestep>
    <timestep time="34.50">
        <vehicle id="background.1" x="51.77" y="-1.60" angle="90.00" type="human" speed="3.69" pos="51.77" lane="e0_0" slope="0.00"/>
        <vehicle id="background.2" x="11.30" y="-1.60" angle="90.00" type="human" speed="12.40" pos="11.30" lane="e0_0" slope="0.00"/>
        <vehicle id="ego" x="63.48" y="-1.60" angle="90.00" type="ego_type" speed="3.75" pos="63.48" lane="e0_0" slope="0.00"/>
    </timestep>
    <timestep time="35.00">
        <vehicle id="background.1" x="53.57" y="-1.60" angle="90.00" type="human" speed="3.59" pos="53.57" lane="e0_0" slope="0.00"/>
        <vehicle id="background.2" x="17.47" y="-1.60" angle="90.00" type="human" speed="12.35" pos="17.47" lane="e0_0" slope="0.00"/>
        <vehicle id="ego" x="65.35" y="-1.60" angle="90.00" type="ego_type" speed="3.75" pos="65.35" lane="e0_0" slope="0.00"/>
    </timestep>
    <timestep time="35.50">
        <vehicle id="background.1" x="55.59" y="-1.60" angle="90.00" type="human" speed="4.05" pos="55.59" lane="e0_0" slope="0.00"/>
        <vehicle id="background.2" x="23.64" y="-1.60" angle="90.00" type="human" speed="12.32" pos="23.64" lane="e0_0" slope="0.00"/>
        <vehicle id="ego" x="67.22" y="-1.60" angle="90.00" type="ego_type" speed="3.75" pos="67.22" lane="e0_0" slope="0.00"/>
    </timestep>
    <timestep time="36.00">
        <vehicle id="background.1" x="57.45" y="-1.60" angle="90.00" type="human" speed="3.71" pos="57.45" lane="e0_0" slope="0.00"/>
        <vehicle id="background.2" x="29.61" y="-1.60" angle="90.00" type="human" speed="11.96" pos="29.61" lane="e0_0" slope="0.00"/>
        <vehicle id="ego" x="69.10" y="-1.60" angle="90.00" type="ego_type" speed="3.75" pos="69.10" lane="e0_0" slope="0.00"/>
    </timestep>
    <timestep time="36.50">
        <vehicle id="background.1" x="59.34" y="-1.60" angle="90.00" type="human" speed="3.79" pos="59.34" lane="e0_0" slope="0.00"/>
        <vehicle id="background.2" x="34.95" y="-1.60" angle="90.00" type="human" speed="10.67" pos="34.95" lane="e0_0" slope="0.00"/>
        <vehicle id="ego" x="70.97" y="-1.60" angle="90.00" type="ego_type" speed="3.75" pos="70.97" lane="e0_0" slope="0.00"/>
    </timestep>
    <timestep time="37.00">
        <vehicle id="background.1" x="61.20" y="-1.60" angle="90.00" type="human" speed="3.70" pos="61.20" lane="e0_0" slope="0.00"/>
        <vehicle id="background.2" x="39.60" y="-1.60" angle="90.00" type="human" speed="9.30" pos="39.60" lane="e0_0" slope="0.00"/>
        <vehicle id="ego" x="72.85" y="-1.60" angle="90.00" type="ego_type" speed="3.75" pos="72.85" lane="e0_0" slope="0.00"/>
    </timestep>
    <timestep time="37.50">
        <vehicle id="background.1" x="63.17" y="-1.60" angle="90.00" type="human" speed="3.95" pos="63.17" lane="e0_0" slope="0.00"/>
        <vehicle id="background.2" x="43.67" y="-1.60" angle="90.00" type="human" speed="8.15" pos="43.67" lane="e0_0" slope="0.00"/>
        <vehicle id="ego" x="74.72" y="-1.60" angle="90.00" type="ego_type" speed="3.75" pos="74.72" lane="e0_0" slope="0.00"/>
    </timestep>
    <timestep time="38.00">
        <vehicle id="background.1" x="64.91" y="-1.60" angle="90.00" type="human" speed="3.49" pos="64.91" lane="e0_0" slope="0.00"/>
        <vehicle id="background.2" x="47.39" y="-1.60" angle="90.00" type="human" speed="7.43" pos="47.39" lane="e0_0" slope="0.00"/>
        <vehicle id="ego" x="76.60" y="-1.60" angle="90.00" type="ego_type" speed="3.75" pos="76.60" lane="e0_0" slope="0.00"/>
    </timestep>
    <timestep time="38.50">
        <vehicle id="background.1" x="66.72" y="-1.60" angle="90.00" type="human" speed="3.62" pos="66.72" lane="e0_0" slope="0.00"/>
        <vehicle id="background.2" x="50.87" y="-1.60" angle="90.00" type="human" speed="6.95" pos="50.87" lane="e0_0" slope="0.00"/>
        <vehicle id="ego" x="78.47" y="-1.60" angle="90.00" type="ego_type" speed="3.75" pos="78.47" lane="e0_0" slope="0.00"/>
    </timestep>
    <timestep time="39.00">
        <vehicle id="background.1" x="68.63" y="-1.60" angle="90.00" type="human" speed="3.82" pos="68.63" lane="e0_0" slope="0.00"/>
        <vehicle id="background.2" x="53.77" y="-1.60" angle="90.00" type="human" speed="5.80" pos="53.77" lane="e0_0" slope="0.00"/>
        <vehicle id="ego" x="80.35" y="-1.60" angle="90.00" type="ego_type" speed="3.75" pos="80.35" lane="e0_0" slope="0.00"/>
    </timestep>
    <timestep time="39.50">
        <vehicle id="background.1" x="70.60" y="-1.60" angle="90.00" type="human" speed="3.93" pos="70.60" lane="e0_0" slope="0.00"/>
        <vehicle id="background.2" x="56.56" y="-1.60" angle="90.00" type="human" speed="5.59" pos="56.56" lane="e0_0" slope="0.00"/>
        <vehicle id="ego" x="82.22" y="-1.60" angle="90.00" type="ego_type" speed="3.75" pos="82.22" lane="e0_0" slope="0.00"/>
    </timestep>
    <timestep time="40.00">
        <vehicle id="background.1" x="72.57" y="-1.60" angle="90.00" type="human" speed="3.94" pos="72.57" lane="e0_0" slope="0.00"/>
        <vehicle id="background.2" x="59.18" y="-1.60" angle="90.00" type="human" speed="5.24" pos="59.18" lane="e0_0" slope="0.00"/>
        <vehicle id="ego" x="84.10" y="-1.60" angle="90.00" type="ego_type" speed="3.75" pos="84.10" lane="e0_0" slope="0.00"/>
    </timestep>
    <timestep time="40.50">
        <vehicle id="background.1" x="74.34" y="-1.60" angle="90.00" type="human" speed="3.55" pos="74.34" lane="e0_0" slope="0.00"/>
        <vehicle id="background.2" x="61.55" y="-1.60" angle="90.00" type="human" speed="4.74" pos="61.55" lane="e0_0" slope="0.00"/>
        <vehicle id="ego" x="85.97" y="-1.60" angle="90.00" type="ego_type" speed="3.75" pos="85.97" lane="e0_0" slope="0.00"/>
    </timestep>
    <timestep time="41.00">
        <vehicle id="background.1" x="76.13" y="-1.60" angle="90.00" type="human" speed="3.58" pos="76.13" lane="e0_0" slope="0.00"/>
        <vehicle id="background.2" x="63.75" y="-1.60" angle="90.00" type="human" speed="4.40" pos="63.75" lane="e0_0" slope="0.00"/>
        <vehicle id="ego" x="87.85" y="-1.60" angle="90.00" type="ego_type" speed="3.75" pos="87.85" lane="e0_0" slope="0.00"/>
    </timestep>
    <timestep time="41.50">
        <vehicle id="background.1" x="78.00" y="-1.60" angle="90.00" type="human" speed="3.73" pos="78.00" lane="e0_0" slope="0.00"/>
        <vehicle id="background.2" x="65.83" y="-1.60" angle="90.00" type="human" speed="4.16" pos="65.83" lane="e0_0" slope="0.00"/>
        <vehicle id="ego" x="89.72" y="-1.60" angle="90.00" type="ego_type" speed="3.75" pos="89.72" lane="e0_0" slope="0.00"/>
    </timestep>
    <timestep time="42.00">
        <vehicle id="background.1" x="80.02" y="-1.60" angle="90.00" type="human" speed="4.04" pos="80.02" lane="e0_0" slope="0.00"/>
        <vehicle id="background.2" x="67.94" y="-1.60" angle="90.00" type="human" speed="4.23" pos="67.94" lane="e0_0" slope="0.00"/>
        <vehicle id="ego" x="91.60" y="-1.60" angle="90.00" type="ego_type" speed="3.75" pos="91.60" lane="e0_0" slope="0.00"/>
    </timestep>
    <timestep time="42.50">
        <vehicle id="background.1" x="82.00" y="-1.60" angle="90.00" type="human" speed="3.95" pos="82.00" lane="e0_0" slope="0.00"/>
        <vehicle id="background.2" x="69.95" y="-1.60" angle="90.00" type="human" speed="4.01" pos="69.95" lane="e0_0" slope="0.00"/>
        <vehicle id="ego" x="93.47" y="-1.60" angle="90.00" type="ego_type" speed="3.75" pos="93.47" lane="e0_0" slope="0.00"/>
    </timestep>
    <timestep time="43.00">
        <vehicle id="background.1" x="83.92" y="-1.60" angle="90.00" type="human" speed="3.84" pos="83.92" lane="e0_0" slope="0.00"/>
        <vehicle id="background.2" x="71.96" y="-1.60" angle="90.00" type="human" speed="4.02" pos="71.96" lane="e0_0" slope="0.00"/>
        <vehicle id="ego" x="95.35" y="-1.60" angle="90.00" type="ego_type" speed="3.75" pos="95.35" lane="e0_0" slope="0.00"/>
    </timestep>
    <timestep time="43.50">