<?xml version="1.0" encoding="UTF-8"?>

<!-- generated on 2026-05-15 22:33:02 by Eclipse SUMO sumo Version 1.24.0
<sumoConfiguration xmlns:xsi="http://www.w3.org/2001/XMLSchema-instance" xsi:noNamespaceSchemaLocation="http://sumo.dlr.de/xsd/sumoConfiguration.xsd">

    <input>
        <net-file value="scenarios/simple_arterial/simple_arterial.net.xml"/>
        <route-files value="scenarios/simple_arterial/simple_arterial.rou.xml"/>
        <additional-files value="scenarios/simple_arterial/simple_arterial.tls.xml"/>
    </input>

    <output>
        <fcd-output value="runs/fcd_rlhf/episode_00015_seed_49.fcd.xml"/>
    </output>

    <time>
        <begin value="0"/>
        <end value="900"/>
        <step-length value="0.5"/>
    </time>

    <report>
        <no-warnings value="true"/>
    </report>

    <traci_server>
        <remote-port value="22606"/>
    </traci_server>

    <random_number>
        <seed value="49"/>
    </random_number>

</sumoConfiguration>
-->

<fcd-export xmlns:xsi="http://www.w3.org/2001/XMLSchema-instance" xsi:noNamespaceSchemaLocation="http://sumo.dlr.de/xsd/fcd_file.xsd">
    <timestep time="0.00"/>
    <timestep time="0.50"/>
    <timestep time="1.00"/>
    <timestep time="1.50"/>
    <timestep time="2.00"/>
    <timestep time="2.50"/>
    <timestep time="3.00"/>
    <timestep time="3.50"/>
    <timestep time="4.00"/>
    <timestep time="4.50"/>
    <timestep time="5.00"/>
    <timestep time="5.50"/>
    <timestep time="6.00"/>
    <timestep time="6.50"/>
    <timestep time="7.00"/>
    <timestep time="7.50"/>
    <timestep time="8.00"/>
    <timestep time="8.50"/>
    <timestep time="9.00"/>
    <timestep time="9.50"/>
    <timestep time="10.00"/>
    <timestep time="10.50"/>
    <timestep time="11.00"/>
    <timestep time="11.50"/>
    <timestep time="12.00"/>
    <timestep time="12.50">
        <vehicle id="background.0" x="5.10" y="-1.60" angle="90.00" type="human" speed="11.26" pos="5.10" lane="e0_0" slope="0.00"/>
    </timestep>
    <timestep time="13.00">
        <vehicle id="background.0" x="10.61" y="-1.60" angle="90.00" type="human" speed="11.01" pos="10.61" lane="e0_0" slope="0.00"/>
    </timestep>
    <timestep time="13.50">
        <vehicle id="background.0" x="16.20" y="-1.60" angle="90.00" type="human" speed="11.19" pos="16.20" lane="e0_0" slope="0.00"/>
    </timestep>
    <timestep time="14.00">
        <vehicle id="background.0" x="21.78" y="-1.60" angle="90.00" type="human" speed="11.15" pos="21.78" lane="e0_0" slope="0.00"/>
    </timestep>
    <timestep time="14.50">
        <vehicle id="background.0" x="27.39" y="-1.60" angle="90.00" type="human" speed="11.22" pos="27.39" lane="e0_0" slope="0.00"/>
    </timestep>
    <timestep time="15.00">
        <vehicle id="background.0" x="32.95" y="-1.60" angle="90.00" type="human" speed="11.13" pos="32.95" lane="e0_0" slope="0.00"/>
    </timestep>
    <timestep time="15.50">
        <vehicle id="background.0" x="38.43" y="-1.60" angle="90.00" type="human" speed="10.95" pos="38.43" lane="e0_0" slope="0.00"/>
    </timestep>
    <timestep time="16.00">
        <vehicle id="background.0" x="43.96" y="-1.60" angle="90.00" type="human" speed="11.06" pos="43.96" lane="e0_0" slope="0.00"/>
    </timestep>
    <timestep time="16.50">
        <vehicle id="background.0" x="49.58" y="-1.60" angle="90.00" type="human" speed="11.25" pos="49.58" lane="e0_0" slope="0.00"/>
    </timestep>
    <timestep time="17.00">
        <vehicle id="background.0" x="55.12" y="-1.60" angle="90.00" type="human" speed="11.07" pos="55.12" lane="e0_0" slope="0.00"/>
    </timestep>
    <timestep time="17.50">
        <vehicle id="background.0" x="60.71" y="-1.60" angle="90.00" type="human" speed="11.18" pos="60.71" lane="e0_0" slope="0.00"/>
    </timestep>
    <timestep time="18.00">
        <vehicle id="background.0" x="66.09" y="-1.60" angle="90.00" type="human" speed="10.76" pos="66.09" lane="e0_0" slope="0.00"/>
    </timestep>
    <timestep time="18.50">
        <vehicle id="background.0" x="71.48" y="-1.60" angle="90.00" type="human" speed="10.78" pos="71.48" lane="e0_0" slope="0.00"/>
    </timestep>
    <timestep time="19.00">
        <vehicle id="background.0" x="77.01" y="-1.60" angle="90.00" type="human" speed="11.06" pos="77.01" lane="e0_0" slope="0.00"/>
    </timestep>
    <timestep time="19.50">
        <vehicle id="background.0" x="82.44" y="-1.60" angle="90.00" type="human" speed="10.86" pos="82.44" lane="e0_0" slope="0.00"/>
    </timestep>
    <timestep time="20.00">
        <vehicle id="background.0" x="87.88" y="-1.60" angle="90.00" type="human" speed="10.87" pos="87.88" lane="e0_0" slope="0.00"/>
    </timestep>
    <timestep time="20.50">
        <vehicle id="background.0" x="93.44" y="-1.60" angle="90.00" type="human" speed="11.14" pos="93.44" lane="e0_0" slope="0.00"/>
    </timestep>
    <timestep time="21.00">
        <vehicle id="background.0" x="98.88" y="-1.60" angle="90.00" type="human" speed="10.88" pos="98.88" lane="e0_0" slope="0.00"/>
    </timestep>
    <timestep time="21.50">
        <vehicle id="background.0" x="104.43" y="-1.60" angle="90.00" type="human" speed="11.10" pos="104.43" lane="e0_0" slope="0.00"/>
    </timestep>
    <timestep time="22.00">
        <vehicle id="background.0" x="109.98" y="-1.60" angle="90.00" type="human" speed="11.10" pos="109.98" lane="e0_0" slope="0.00"/>
    </timestep>
    <timestep time="22.50">
        <vehicle id="background.0" x="115.50" y="-1.60" angle="90.00" type="human" speed="11.04" pos="115.50" lane="e0_0" slope="0.00"/>
    </timestep>
    <timestep time="23.00">
        <vehicle id="background.0" x="121.05" y="-1.60" angle="90.00" type="human" speed="11.09" pos="121.05" lane="e0_0" slope="0.00"/>
    </timestep>
    <timestep time="23.50">
        <vehicle id="background.0" x="126.64" y="-1.60" angle="90.00" type="human" speed="11.19" pos="126.64" lane="e0_0" slope="0.00"/>
    </timestep>
    <timestep time="24.00">
        <vehicle id="background.0" x="132.18" y="-1.60" angle="90.00" type="human" speed="11.08" pos="132.18" lane="e0_0" slope="0.00"/>
    </timestep>
    <timestep time="24.50">
        <vehicle id="background.0" x="137.67" y="-1.60" angle="90.00" type="human" speed="10.96" pos="137.67" lane="e0_0" slope="0.00"/>
    </timestep>
    <timestep time="25.00">
        <vehicle id="background.0" x="143.26" y="-1.60" angle="90.00" type="human" speed="11.19" pos="143.26" lane="e0_0" slope="0.00"/>
    </timestep>
    <timestep time="25.50">
        <vehicle id="background.0" x="148.64" y="-1.60" angle="90.00" type="human" speed="10.77" pos="148.64" lane="e0_0" slope="0.00"/>
    </timestep>
    <timestep time="26.00">
        <vehicle id="background.0" x="154.03" y="-1.60" angle="90.00" type="human" speed="10.77" pos="154.03" lane="e0_0" slope="0.00"/>
    </timestep>
    <timestep time="26.50">
        <vehicle id="background.0" x="159.64" y="-1.60" angle="90.00" type="human" speed="11.21" pos="159.64" lane="e0_0" slope="0.00"/>
    </timestep>
    <timestep time="27.00">
        <vehicle id="background.0" x="165.04" y="-1.60" angle="90.00" type="human" speed="10.80" pos="165.04" lane="e0_0" slope="0.00"/>
    </timestep>
    <timestep time="27.50">
        <vehicle id="background.0" x="170.60" y="-1.60" angle="90.00" type="human" speed="11.11" pos="170.60" lane="e0_0" slope="0.00"/>
    </timestep>
    <timestep time="28.00">
        <vehicle id="background.0" x="176.09" y="-1.60" angle="90.00" type="human" speed="10.98" pos="176.09" lane="e0_0" slope="0.00"/>
    </timestep>
    <timestep time="28.50">
        <vehicle id="background.0" x="181.66" y="-1.60" angle="90.00" type="human" speed="11.14" pos="181.66" lane="e0_0" slope="0.00"/>
    </timestep>
    <timestep time="29.00">
        <vehicle id="background.0" x="187.21" y="-1.60" angle="90.00" type="human" speed="11.10" pos="187.21" lane="e0_0" slope="0.00"/>
    </timestep>
    <timestep time="29.50">
        <vehicle id="background.0" x="192.71" y="-1.60" angle="90.00" type="human" speed="11.00" pos="192.71" lane="e0_0" slope="0.00"/>
    </timestep>
    <timestep time="30.00">
        <vehicle id="background.0" x="198.11" y="-1.60" angle="90.00" type="human" speed="10.82" pos="198.11" lane="e0_0" slope="0.00"/>
    </timestep>
    <timestep time="30.50">
        <vehicle id="background.0" x="203.73" y="-1.60" angle="90.00" type="human" speed="11.24" pos="203.73" lane="e0_0" slope="0.00"/>
    </timestep>
    <timestep time="31.00">
        <vehicle id="background.0" x="209.19" y="-1.60" angle="90.00" type="human" speed="10.92" pos="209.19" lane="e0_0" slope="0.00"/>
    </timestep>
    <timestep time="31.50">
        <vehicle id="background.0" x="214.76" y="-1.60" angle="90.00" type="human" speed="11.13" pos="214.76" lane="e0_0" slope="0.00"/>
    </timestep>
    <timestep time="32.00">
        <vehicle id="background.0" x="220.29" y="-1.60" angle="90.00" type="human" speed="11.06" pos="220.29" lane="e0_0" slope="0.00"/>
    </timestep>
    <timestep time="32.50">
        <vehicle id="background.0" x="225.75" y="-1.60" angle="90.00" type="human" speed="10.92" pos="225.75" lane="e0_0" slope="0.00"/>
    </timestep>
    <timestep time="33.00">
        <vehicle id="background.0" x="231.25" y="-1.60" angle="90.00" type="human" speed="11.01" pos="231.25" lane="e0_0" slope="0.00"/>
        <vehicle id="ego" x="5.10" y="-1.60" angle="90.00" type="ego_type" speed="7.71" pos="5.10" lane="e0_0" slope="0.00"/>
    </timestep>
    <timestep time="33.50">
        <vehicle id="background.0" x="236.69" y="-1.60" angle="90.00" type="human" speed="10.86" pos="236.69" lane="e0_0" slope="0.00"/>
        <vehicle id="ego" x="9.21" y="-1.60" angle="90.00" type="ego_type" speed="8.21" pos="9.21" lane="e0_0" slope="0.00"/>
    </timestep>
    <timestep time="34.00">
        <vehicle id="background.0" x="242.22" y="-1.60" angle="90.00" type="human" speed="11.08" pos="242.22" lane="e0_0" slope="0.00"/>
        <vehicle id="ego" x="12.56" y="-1.60" angle="90.00" type="ego_type" speed="6.71" pos="12.56" lane="e0_0" slope="0.00"/>
    </timestep>
    <timestep time="34.50">
        <vehicle id="background.0" x="247.83" y="-1.60" angle="90.00" type="human" speed="11.20" pos="247.83" lane="e0_0" slope="0.00"/>
        <vehicle id="ego" x="16.04" y="-1.60" angle="90.00" type="ego_type" speed="6.96" pos="16.04" lane="e0_0" slope="0.00"/>
    </timestep>
    <timestep time="35.00">
        <vehicle id="background.0" x="253.41" y="-1.60" angle="90.00" type="human" speed="11.18" pos="253.41" lane="e0_0" slope="0.00"/>
        <vehicle id="ego" x="19.52" y="-1.60" angle="90.00" type="ego_type" speed="6.96" pos="19.52" lane="e0_0" slope="0.00"/>
    </timestep>
    <timestep time="35.50">
        <vehicle id="background.0" x="259.04" y="-1.60" angle="90.00" type="human" speed="11.25" pos="259.04" lane="e0_0" slope="0.00"/>
        <vehicle id="ego" x="23.25" y="-1.60" angle="90.00" type="ego_type" speed="7.46" pos="23.25" lane="e0_0" slope="0.00"/>
    </timestep>
    <timestep time="36.00">
        <vehicle id="background.0" x="264.47" y="-1.60" angle="90.00" type="human" speed="10.86" pos="264.47" lane="e0_0" slope="0.00"/>
        <vehicle id="ego" x="27.36" y="-1.60" angle="90.00" type="ego_type" speed="8.21" pos="27.36" lane="e0_0" slope="0.00"/>
    </timestep>
    <timestep time="36.50">
        <vehicle id="background.0" x="270.03" y="-1.60" angle="90.00" type="human" speed="11.12" pos="270.03" lane="e0_0" slope="0.00"/>
        <vehicle id="ego" x="31.72" y="-1.60" angle="90.00" type="ego_type" speed="8.71" pos="31.72" lane="e0_0" slope="0.00"/>
    </timestep>
    <timestep time="37.00">
        <vehicle id="background.0" x="275.44" y="-1.60" angle="90.00" type="human" speed="10.83" pos="275.44" lane="e0_0" slope="0.00"/>
        <vehicle id="ego" x="35.95" y="-1.60" angle="90.00" type="ego_type" speed="8.46" pos="35.95" lane="e0_0" slope="0.00"/>
    </timestep>
    <timestep time="37.50">
        <vehicle id="background.0" x="280.94" y="-1.60" angle="90.00" type="human" speed="10.99" pos="280.94" lane="e0_0" slope="0.00"/>
        <vehicle id="background.1" x="5.10" y="-1.60" angle="90.00" type="human" speed="12.80" pos="5.10" lane="e0_0" slope="0.00"/>
        <vehicle id="ego" x="40.43" y="-1.60" angle="90.00" type="ego_type" speed="8.96" pos="40.43" lane="e0_0" slope="0.00"/>
    </timestep>
    <timestep time="38.00">
        <vehicle id="background.0" x="286.40" y="-1.60" angle="90.00" type="human" speed="10.91" pos="286.40" lane="e0_0" slope="0.00"/>
        <vehicle id="background.1" x="11.49" y="-1.60" angle="90.00" type="human" speed="12.77" pos="11.49" lane="e0_0" slope="0.00"/>
        <vehicle id="ego" x="44.78" y="-1.60" angle="90.00" type="ego_type" speed="8.71" pos="44.78" lane="e0_0" slope="0.00"/>
    </timestep>
    <timestep time="38.50">
        <vehicle id="background.0" x="291.85" y="-1.60" angle="90.00" type="human" speed="10.90" pos="291.85" lane="e0_0" slope="0.00"/>
        <vehicle id="background.1" x="17.64" y="-1.60" angle="90.00" type="human" speed="12.30" pos="17.64" lane="e0_0" slope="0.00"/>
        <vehicle id="ego" x="49.14" y="-1.60" angle="90.00" type="ego_type" speed="8.71" pos="49.14" lane="e0_0" slope="0.00"/>
    </timestep>
    <timestep time="39.00">
        <vehicle id="background.0" x="297.43" y="-1.60" angle="90.00" type="human" speed="11.16" pos="297.43" lane="e0_0" slope="0.00"/>
        <vehicle id="background.1" x="23.79" y="-1.60" angle="90.00" type="human" speed="12.30" pos="23.79" lane="e0_0" slope="0.00"/>
        <vehicle id="ego" x="52.75" y="-1.60" angle="90.00" type="ego_type" speed="7.21" pos="52.75" lane="e0_0" slope="0.00"/>
    </timestep>
    <timestep time="39.50">
        <vehicle id="background.0" x="302.73" y="-1.60" angle="90.00" type="human" speed="10.79" pos="2.73" lane="e1_0" slope="0.00"/>
        <vehicle id="background.1" x="29.18" y="-1.60" angle="90.00" type="human" speed="10.80" pos="29.18" lane="e0_0" slope="0.00"/>
        <vehicle id="ego" x="56.10" y="-1.60" angle="90.00" type="ego_type" speed="6.71" pos="56.10" lane="e0_0" slope="0.00"/>
    </timestep>
    <timestep time="40.00">
        <vehicle id="background.0" x="308.19" y="-1.60" angle="90.00" type="human" speed="10.92" pos="8.19" lane="e1_0" slope="0.00"/>
        <vehicle id="background.1" x="34.15" y="-1.60" angle="90.00" type="human" speed="9.93" pos="34.15" lane="e0_0" slope="0.00"/>
        <vehicle id="ego" x="58.96" y="-1.60" angle="90.00" type="ego_type" speed="5.71" pos="58.96" lane="e0_0" slope="0.00"/>
    </timestep>
    <timestep time="40.50">
        <vehicle id="background.0" x="313.73" y="-1.60" angle="90.00" type="human" speed="11.10" pos="13.73" lane="e1_0" slope="0.00"/>
        <vehicle id="background.1" x="38.63" y="-1.60" angle="90.00" type="human" speed="8.96" pos="38.63" lane="e0_0" slope="0.00"/>
        <vehicle id="ego" x="61.31" y="-1.60" angle="90.00" type="ego_type" speed="4.71" pos="61.31" lane="e0_0" slope="0.00"/>
    </timestep>
    <timestep time="41.00">
        <vehicle id="background.0" x="319.35" y="-1.60" angle="90.00" type="human" speed="11.24" pos="19.35" lane="e1_0" slope="0.00"/>
        <vehicle id="background.1" x="42.62" y="-1.60" angle="90.00" type="human" speed="7.99" pos="42.62" lane="e0_0" slope="0.00"/>
        <vehicle id="ego" x="63.17" y="-1.60" angle="90.00" type="ego_type" speed="3.71" pos="63.17" lane="e0_0" slope="0.00"/>
    </timestep>
    <timestep time="41.50">
        <vehicle id="background.0" x="324.86" y="-1.60" angle="90.00" type="human" speed="11.00" pos="24.86" lane="e1_0" slope="0.00"/>
        <vehicle id="background.1" x="46.23" y="-1.60" angle="90.00" type="human" speed="7.23" pos="46.23" lane="e0_0" slope="0.00"/>
        <vehicle id="ego" x="64.65" y="-1.60" angle="90.00" type="ego_type" speed="2.96" pos="64.65" lane="e0_0" slope="0.00"/>
    </timestep>
    <timestep time="42.00">
        <vehicle id="background.0" x="330.40" y="-1.60" angle="90.00" type="human" speed="11.09" pos="30.40" lane="e1_0" slope="0.00"/>
        <vehicle id="background.1" x="49.25" y="-1.60" angle="90.00" type="human" speed="6.04" pos="49.25" lane="e0_0" slope="0.00"/>
        <vehicle id="ego" x="65.51" y="-1.60" angle="90.00" type="ego_type" speed="1.71" pos="65.51" lane="e0_0" slope="0.00"/>
    </timestep>
    <timestep time="42.50">
        <vehicle id="background.0" x="335.79" y="-1.60" angle="90.00" type="human" speed="10.79" pos="35.79" lane="e1_0" slope="0.00"/>
        <vehicle id="background.1" x="51.71" y="-1.60" angle="90.00" type="human" speed="4.90" pos="51.71" lane="e0_0" slope="0.00"/>
        <vehicle id="ego" x="66.49" y="-1.60" angle="90.00" type="ego_type" speed="1.96" pos="66.49" lane="e0_0" slope="0.00"/>
    </timestep>
    <timestep time="43.00">
        <vehicle id="background.0" x="341.26" y="-1.60" angle="90.00" type="human" speed="10.94" pos="41.26" lane="e1_0" slope="0.00"/>
        <vehicle id="background.1" x="53.91" y="-1.60" angle="90.00" type="human" speed="4.41" pos="53.91" lane="e0_0" slope="0.00"/>
        <vehicle id="ego" x="66.97" y="-1.60" angle="90.00" type="ego_type" speed="0.96" pos="66.97" lane="e0_0" slope="0.00"/>
    </timestep>
    <timestep time="43.50">
        <vehicle id="background.0" x="346.75" y="-1.60" angle="90.00" type="human" speed="10.99" pos="46.75" lane="e1_0" slope="0.00"/>
        <vehicle id="background.1" x="55.75" y="-1.60" angle="90.00" type="human" speed="3.69" pos="55.75" lane="e0_0" slope="0.00"/>
        <vehicle id="ego" x="67.57" y="-1.60" angle="90.00" type="ego_type" speed="1.21" pos="67.57" lane="e0_0" slope="0.00"/>
    </timestep>
    <timestep time="44.00">
        <vehicle id="background.1" x="57.17" y="-1.60" angle="90.00" type="human" speed="2.83" pos="57.17" lane="e0_0" slope="0.00"/>
        <vehicle id="ego" x="68.06" y="-1.60" angle="90.00" type="ego_type" speed="0.96" pos="68.06" lane="e0_0" slope="0.00"/>
    </timestep>
    <timestep time="44.50">
        <vehicle id="background.1" x="58.35" y="-1.60" angle="90.00" type="human" speed="2.37" pos="58.35" lane="e0_0" slope="0.00"/>
        <vehicle id="ego" x="68.16" y="-1.60" angle="90.00" type="ego_type" speed="0.21" pos="68.16" lane="e0_0" slope="0.00"/>
    </timestep>
    <timestep time="45.00">
        <vehicle id="background.1" x="59.19" y="-1.60" angle="90.00" type="human" speed="1.68" pos="59.19" lane="e0_0" slope="0.00"/>
        <vehicle id="ego" x="68.77" y="-1.60" angle="90.00" type="ego_type" speed="1.21" pos="68.77" lane="e0_0" slope="0.00"/>
    </timestep>
    <timestep time="45.50">
        <vehicle id="background.1" x="60.10" y="-1.60" angle="90.00" type="human" speed="1.83" pos="60.10" lane="e0_0" slope="0.00"/>
        <vehicle id="background.2" x="5.10" y="-1.60" angle="90.00" type="human" speed="13.89" pos="5.10" lane="e0_0" slope="0.00"/>
        <vehicle id="ego" x="69.37" y="-1.60" angle="90.00" type="ego_type" speed="1.21" pos="69.37" lane="e0_0" slope="0.00"/>
    </timestep>
    <timestep time="46.00">
        <vehicle id="background.1" x="60.75" y="-1.60" angle="90.00" type="human" speed="1.30" pos="60.75" lane="e0_0" slope="0.00"/>
        <vehicle id="background.2" x="11.99" y="-1.60" angle="90.00" type="human" speed="13.78" pos="11.99" lane="e0_0" slope="0.00"/>
        <vehicle id="ego" x="69.98" y="-1.60" angle="90.00" type="ego_type" speed="1.21" pos="69.98" lane="e0_0" slope="0.00"/>
    </timestep>
    <timestep time="46.50">
        <vehicle id="background.1" x="61.43" y="-1.60" angle="90.00" type="human" speed="1.36" pos="61.43" lane="e0_0" slope="0.00"/>
        <vehicle id="background.2" x="18.74" y="-1.60" angle="90.00" type="human" speed="13.49" pos="18.74" lane="e0_0" slope="0.00"/>
        <vehicle id="ego" x="70.83" y="-1.60" angle="90.00" type="ego_type" speed="1.71" pos="70.83" lane="e0_0" slope="0.00"/>
    </timestep>
    <timestep time="47.00">
        <vehicle id="background.1" x="62.21" y="-1.60" angle="90.00" type="human" speed="1.56" pos="62.21" lane="e0_0" slope="0.00"/>
        <vehicle id="background.2" x="24.89" y="-1.60" angle="90.00" type="human" speed="12.30" pos="24.89" lane="e0_0" slope="0.00"/>
        <vehicle id="ego" x="71.57" y="-1.60" angle="90.00" type="ego_type" speed="1.46" pos="71.57" lane="e0_0" slope="0.00"/>
    </timestep>
    <timestep time="47.50">
        <vehicle id="background.1" x="62.88" y="-1.60" angle="90.00" type="human" speed="1.34" pos="62.88" lane="e0_0" slope="0.00"/>
        <vehicle id="background.2" x="30.47" y="-1.60" angle="90.00" type="human" speed="11.17" pos="30.47" lane="e0_0" slope="0.00"/>
        <vehicle id="ego" x="72.17" y="-1.60" angle="90.00" type="ego_type" speed="1.21" pos="72.17" lane="e0_0" slope="0.00"/>
    </timestep>
    <timestep time="48.00">
        <vehicle id="background.1" x="63.55" y="-1.60" angle="90.00" type="human" speed="1.34" pos="63.55" lane="e0_0" slope="0.00"/>
        <vehicle id="background.2" x="35.31" y="-1.60" angle="90.00" type="human" speed="9.67" pos="35.31" lane="e0_0" slope="0.00"/>
        <vehicle id="ego" x="72.90" y="-1.60" angle="90.00" type="ego_type" speed="1.46" pos="72.90" lane="e0_0" slope="0.00"/>
    </timestep>
    <timestep time="48.50">
        <vehicle id="background.1" x="64.30" y="-1.60" angle="90.00" type="human" speed="1.51" pos="64.30" lane="e0_0" slope="0.00"/>
        <vehicle id="background.2" x="39.81" y="-1.60" angle="90.00" type="human" speed="9.01" pos="39.81" lane="e0_0" slope="0.00"/>
        <vehicle id="ego" x="73.51" y="-1.60" angle="90.00" type="ego_type" speed="1.21" pos="73.51" lane="e0_0" slope="0.00"/>
    </timestep>
    <timestep time="49.00">
        <vehicle id="background.1" x="64.99" y="-1.60" angle="90.00" type="human" speed="1.37" pos="64.99" lane="e0_0" slope="0.00"/>
        <vehicle id="background.2" x="43.76" y="-1.60" angle="90.00" type="human" speed="7.90" pos="43.76" lane="e0_0" slope="0.00"/>
        <vehicle id="background.3" x="5.10" y="-1.60" angle="90.00" type="human" speed="13.33" pos="5.10" lane="e0_0" slope="0.00"/>
        <vehicle id="ego" x="74.24" y="-1.60" angle="90.00" type="ego_type" speed="1.46" pos="74.24" lane="e0_0" slope="0.00"/>
    </timestep>
    <timestep time="49.50">
        <vehicle id="background.1" x="65.64" y="-1.60" angle="90.00" type="human" speed="1.31" pos="65.64" lane="e0_0" slope="0.00"/>
        <vehicle id="background.2" x="47.28" y="-1.60" angle="90.00" type="human" speed="7.04" pos="47.28" lane="e0_0" slope="0.00"/>
        <vehicle id="background.3" x="11.66" y="-1.60" angle="90.00" type="human" speed="13.12" pos="11.66" lane="e0_0" slope="0.00"/>
        <vehicle id="ego" x="74.47" y="-1.60" angle="90.00" type="ego_type" speed="0.46" pos="74.47" lane="e0_0" slope="0.00"/>
    </timestep>
    <timestep time="50.00">
        <vehicle id="background.1" x="66.30" y="-1.60" angle="90.00" type="human" speed="1.31" pos="66.30" lane="e0_0" slope="0.00"/>
        <vehicle id="background.2" x="50.31" y="-1.60" angle="90.00" type="human" speed="6.06" pos="50.31" lane="e0_0" slope="0.00"/>
        <vehicle id="background.3" x="17.82" y="-1.60" angle="90.00" type="human" speed="12.33" pos="17.82" lane="e0_0" slope="0.00"/>
        <vehicle id="ego" x="74.70" y="-1.60" angle="90.00" type="ego_type" speed="0.46" pos="74.70" lane="e0_0" slope="0.00"/>
    </timestep>
    <timestep time="50.50">
        <vehicle id="background.1" x="66.69" y="-1.60" angle="90.00" type="human" speed="0.78" pos="66.69" lane="e0_0" slope="0.00"/>
        <vehicle id="background.2" x="52.77" y="-1.60" angle="90.00" type="human" speed="4.92" pos="52.77" lane="e0_0" slope="0.00"/>
        <vehicle id="background.3" x="23.36" y="-1.60" angle="90.00" type="human" speed="11.08" pos="23.36" lane="e0_0" slope="0.00"/>
        <vehicle id="ego" x="74.93" y="-1.60" angle="90.00" type="ego_type" speed="0.46" pos="74.93" lane="e0_0" slope="0.00"/>
    </timestep>
    <timestep time="51.00">
        <vehicle id="background.1" x="67.02" y="-1.60" angle="90.00" type="human" speed="0.65" pos="67.02" lane="e0_0" slope="0.00"/>
        <vehicle id="background.2" x="54.79" y="-1.60" angle="90.00" type="human" speed="4.04" pos="54.79" lane="e0_0" slope="0.00"/>
        <vehicle id="background.3" x="28.27" y="-1.60" angle="90.00" type="human" speed="9.80" pos="28.27" lane="e0_0" slope="0.00"/>
        <vehicle id="ego" x="75.29" y="-1.60" angle="90.00" type="ego_type" speed="0.71" pos="75.29" lane="e0_0" slope="0.00"/>
    </timestep>
    <timestep time="51.50">
        <vehicle id="background.1" x="67.33" y="-1.60" angle="90.00" type="human" speed="0.63" pos="67.33" lane="e0_0" slope="0.00"/>
        <vehicle id="background.2" x="56.31" y="-1.60" angle="90.00" type="human" speed="3.02" pos="56.31" lane="e0_0" slope="0.00"/>
        <vehicle id="background.3" x="32.66" y="-1.60" angle="90.00" type="human" speed="8.78" pos="32.66" lane="e0_0" slope="0.00"/>
        <vehicle id="ego" x="75.39" y="-1.60" angle="90.00" type="ego_type" speed="0.21" pos="75.39" lane="e0_0" slope="0.00"/>
    </timestep>
    <timestep time="52.00">
        <vehicle id="background.1" x="67.60" y="-1.60" angle="90.00" type="human" speed="0.53" pos="67.60" lane="e0_0" slope="0.00"/>
        <vehicle id="background.2" x="57.67" y="-1.60" angle="90.00" type="human" speed="2.72" pos="57.67" lane="e0_0" slope="0.00"/>
        <vehicle id="background.3" x="36.62" y="-1.60" angle="90.00" type="human" speed="7.92" pos="36.62" lane="e0_0" slope="0.00"/>
        <vehicle id="ego" x="75.50" y="-1.60" angle="90.00" type="ego_type" speed="0.21" pos="75.50" lane="e0_0" slope="0.00"/>
    </timestep>
    <timestep time="52.50">
        <vehicle id="background.1" x="67.80" y="-1.60" angle="90.00" type="human" speed="0.39" pos="67.80" lane="e0_0" slope="0.00"/>
        <vehicle id="background.2" x="58.49" y="-1.60" angle="90.00" type="human" speed="1.64" pos="58.49" lane="e0_0" slope="0.00"/>
        <vehicle id="background.3" x="40.03" y="-1.60" angle="90.00" type="human" speed="6.82" pos="40.03" lane="e0_0" slope="0.00"/>
        <vehicle id="ego" x="75.61" y="-1.60" angle="90.00" type="ego_type" speed="0.21" pos="75.61" lane="e0_0" slope="0.00"/>
    </timestep>
    <timestep time="53.00">
        <vehicle id="background.1" x="67.93" y="-1.60" angle="90.00" type="human" speed="0.26" pos="67.93" lane="e0_0" slope="0.00"/>
        <vehicle id="background.2" x="59.19" y="-1.60" angle="90.00" type="human" speed="1.40" pos="59.19" lane="e0_0" slope="0.00"/>
        <vehicle id="background.3" x="42.96" y="-1.60" angle="90.00" type="human" speed="5.88" pos="42.96" lane="e0_0" slope="0.00"/>
        <vehicle id="background.4" x="5.10" y="-1.60" angle="90.00" type="human" speed="12.34" pos="5.10" lane="e0_0" slope="0.00"/>
        <vehicle id="ego" x="75.84" y="-1.60" angle="90.00" type="ego_type" speed="0.46" pos="75.84" lane="e0_0" slope="0.00"/>
    </timestep>
    <timestep time="53.50">
        <vehicle id="background.1" x="68.12" y="-1.60" angle="90.00" type="human" speed="0.40" pos="68.12" lane="e0_0" slope="0.00"/>
        <vehicle id="background.2" x="59.66" y="-1.60" angle="90.00" type="human" speed="0.95" pos="59.66" lane="e0_0" slope="0.00"/>
        <vehicle id="background.3" x="45.43" y="-1.60" angle="90.00" type="human" speed="4.93" pos="45.43" lane="e0_0" slope="0.00"/>
        <vehicle id="background.4" x="11.05" y="-1.60" angle="90.00" type="human" speed="11.91" pos="11.05" lane="e0_0" slope="0.00"/>
        <vehicle id="ego" x="76.07" y="-1.60" angle="90.00" type="ego_type" speed="0.46" pos="76.07" lane="e0_0" slope="0.00"/>
    </timestep>
    <timestep time="54.00">
        <vehicle id="background.1" x="68.32" y="-1.60" angle="90.00" type="human" speed="0.39" pos="68.32" lane="e0_0" slope="0.00"/>
        <vehicle id="background.2" x="60.09" y="-1.60" angle="90.00" type="human" speed="0.86" pos="60.09" lane="e0_0" slope="0.00"/>
        <vehicle id="background.3" x="47.67" y="-1.60" angle="90.00" type="human" speed="4.49" pos="47.67" lane="e0_0" slope="0.00"/>
        <vehicle id="background.4" x="16.49" y="-1.60" angle="90.00" type="human" speed="10.86" pos="16.49" lane="e0_0" slope="0.00"/>
        <vehicle id="ego" x="76.55" y="-1.60" angle="90.00" type="ego_type" speed="0.96" pos="76.55" lane="e0_0" slope="0.00"/>
    </timestep>
    <timestep time="54.50">
        <vehicle id="background.1" x="68.67" y="-1.60" angle="90.00" type="human" speed="0.69" pos="68.67" lane="e0_0" slope="0.00"/>
        <vehicle id="background.2" x="60.46" y="-1.60" angle="90.00" type="human" speed="0.73" pos="60.46" lane="e0_0" slope="0.00"/>
        <vehicle id="background.3" x="49.32" y="-1.60" angle="90.00" type="human" speed="3.29" pos="49.32" lane="e0_0" slope="0.00"/>
        <vehicle id="background.4" x="21.55" y="-1.60" angle="90.00" type="human" speed="10.12" pos="21.55" lane="e0_0" slope="0.00"/>
        <vehicle id="ego" x="76.90" y="-1.60" angle="90.00" type="ego_type" speed="0.71" pos="76.90" lane="e0_0" slope="0.00"/>
    </timestep>
    <timestep time="55.00">
        <vehicle id="background.1" x="69.00" y="-1.60" angle="90.00" type="human" speed="0.67" pos="69.00" lane="e0_0" slope="0.00"/>
        <vehicle id="background.2" x="60.79" y="-1.60" angle="90.00" type="human" speed="0.67" pos="60.79" lane="e0_0" slope="0.00"/>
        <vehicle id="background.3" x="50.75" y="-1.60" angle="90.00" type="human" speed="2.87" pos="50.75" lane="e0_0" slope="0.00"/>
        <vehicle id="background.4" x="26.04" y="-1.60" angle="90.00" type="human" speed="8.99" pos="26.04" lane="e0_0" slope="0.00"/>
        <vehicle id="ego" x="77.01" y="-1.60" angle="90.00" type="ego_type" speed="0.21" pos="77.01" lane="e0_0" slope="0.00"/>
    </timestep>
    <timestep time="55.50">