<?xml version="1.0" encoding="UTF-8"?>

<!-- generated on 2026-05-13 21:30:24 by Eclipse SUMO sumo Version 1.24.0
<sumoConfiguration xmlns:xsi="http://www.w3.org/2001/XMLSchema-instance" xsi:noNamespaceSchemaLocation="http://sumo.dlr.de/xsd/sumoConfiguration.xsd">

    <input>
        <net-file value="scenarios/simple_arterial/simple_arterial.net.xml"/>
        <route-files value="scenarios/simple_arterial/simple_arterial.rou.xml"/>
        <additional-files value="scenarios/simple_arterial/simple_arterial.tls.xml"/>
    </input>

    <output>
        <fcd-output value="runs/fcd_rlhf/episode_00003_seed_203.fcd.xml"/>
    </output>

    <time>
        <begin value="0"/>
        <end value="900"/>
        <step-length value="0.5"/>
    </time>

    <report>
        <no-warnings value="true"/>
    </report>

    <traci_server>
        <remote-port value="22810"/>
    </traci_server>

    <random_number>
        <seed value="203"/>
    </random_number>

</sumoConfiguration>
-->

<fcd-export xmlns:xsi="http://www.w3.org/2001/XMLSchema-instance" xsi:noNamespaceSchemaLocation="http://sumo.dlr.de/xsd/fcd_file.xsd">
    <timestep time="0.00"/>
    <timestep time="0.50"/>
    <timestep time="1.00"/>
    <timestep time="1.50"/>
    <timestep time="2.00"/>
    <timestep time="2.50"/>
    <timestep time="3.00"/>
    <timestep time="3.50"/>
    <timestep time="4.00"/>
    <timestep time="4.50"/>
    <timestep time="5.00"/>
    <timestep time="5.50"/>
    <timestep time="6.00"/>
    <timestep time="6.50"/>
    <timestep time="7.00"/>
    <timestep time="7.50"/>
    <timestep time="8.00"/>
    <timestep time="8.50"/>
    <timestep time="9.00"/>
    <timestep time="9.50"/>
    <timestep time="10.00"/>
    <timestep time="10.50"/>
    <timestep time="11.00"/>
    <timestep time="11.50"/>
    <timestep time="12.00"/>
    <timestep time="12.50"/>
    <timestep time="13.00"/>
    <timestep time="13.50"/>
    <timestep time="14.00"/>
    <timestep time="14.50">
        <vehicle id="background.0" x="5.10" y="-1.60" angle="90.00" type="human" speed="13.89" pos="5.10" lane="e0_0" slope="0.00"/>
    </timestep>
    <timestep time="15.00">
        <vehicle id="background.0" x="11.81" y="-1.60" angle="90.00" type="human" speed="13.42" pos="11.81" lane="e0_0" slope="0.00"/>
    </timestep>
    <timestep time="15.50">
        <vehicle id="background.0" x="18.59" y="-1.60" angle="90.00" type="human" speed="13.56" pos="18.59" lane="e0_0" slope="0.00"/>
    </timestep>
    <timestep time="16.00">
        <vehicle id="background.0" x="25.44" y="-1.60" angle="90.00" type="human" speed="13.70" pos="25.44" lane="e0_0" slope="0.00"/>
    </timestep>
    <timestep time="16.50">
        <vehicle id="background.0" x="32.19" y="-1.60" angle="90.00" type="human" speed="13.49" pos="32.19" lane="e0_0" slope="0.00"/>
    </timestep>
    <timestep time="17.00">
        <vehicle id="background.0" x="38.96" y="-1.60" angle="90.00" type="human" speed="13.56" pos="38.96" lane="e0_0" slope="0.00"/>
    </timestep>
    <timestep time="17.50">
        <vehicle id="background.0" x="45.76" y="-1.60" angle="90.00" type="human" speed="13.59" pos="45.76" lane="e0_0" slope="0.00"/>
    </timestep>
    <timestep time="18.00">
        <vehicle id="background.0" x="52.45" y="-1.60" angle="90.00" type="human" speed="13.39" pos="52.45" lane="e0_0" slope="0.00"/>
        <vehicle id="background.1" x="5.10" y="-1.60" angle="90.00" type="human" speed="12.69" pos="5.10" lane="e0_0" slope="0.00"/>
    </timestep>
    <timestep time="18.50">
        <vehicle id="background.0" x="59.17" y="-1.60" angle="90.00" type="human" speed="13.43" pos="59.17" lane="e0_0" slope="0.00"/>
        <vehicle id="background.1" x="11.22" y="-1.60" angle="90.00" type="human" speed="12.24" pos="11.22" lane="e0_0" slope="0.00"/>
    </timestep>
    <timestep time="19.00">
        <vehicle id="background.0" x="66.03" y="-1.60" angle="90.00" type="human" speed="13.73" pos="66.03" lane="e0_0" slope="0.00"/>
        <vehicle id="background.1" x="17.37" y="-1.60" angle="90.00" type="human" speed="12.30" pos="17.37" lane="e0_0" slope="0.00"/>
    </timestep>
    <timestep time="19.50">
        <vehicle id="background.0" x="72.82" y="-1.60" angle="90.00" type="human" speed="13.58" pos="72.82" lane="e0_0" slope="0.00"/>
        <vehicle id="background.1" x="23.62" y="-1.60" angle="90.00" type="human" speed="12.49" pos="23.62" lane="e0_0" slope="0.00"/>
    </timestep>
    <timestep time="20.00">
        <vehicle id="background.0" x="79.73" y="-1.60" angle="90.00" type="human" speed="13.82" pos="79.73" lane="e0_0" slope="0.00"/>
        <vehicle id="background.1" x="29.81" y="-1.60" angle="90.00" type="human" speed="12.38" pos="29.81" lane="e0_0" slope="0.00"/>
    </timestep>
    <timestep time="20.50">
        <vehicle id="background.0" x="86.57" y="-1.60" angle="90.00" type="human" speed="13.69" pos="86.57" lane="e0_0" slope="0.00"/>
        <vehicle id="background.1" x="36.09" y="-1.60" angle="90.00" type="human" speed="12.56" pos="36.09" lane="e0_0" slope="0.00"/>
    </timestep>
    <timestep time="21.00">
        <vehicle id="background.0" x="93.50" y="-1.60" angle="90.00" type="human" speed="13.84" pos="93.50" lane="e0_0" slope="0.00"/>
        <vehicle id="background.1" x="42.31" y="-1.60" angle="90.00" type="human" speed="12.44" pos="42.31" lane="e0_0" slope="0.00"/>
    </timestep>
    <timestep time="21.50">
        <vehicle id="background.0" x="100.32" y="-1.60" angle="90.00" type="human" speed="13.64" pos="100.32" lane="e0_0" slope="0.00"/>
        <vehicle id="background.1" x="48.59" y="-1.60" angle="90.00" type="human" speed="12.56" pos="48.59" lane="e0_0" slope="0.00"/>
    </timestep>
    <timestep time="22.00">
        <vehicle id="background.0" x="107.26" y="-1.60" angle="90.00" type="human" speed="13.89" pos="107.26" lane="e0_0" slope="0.00"/>
        <vehicle id="background.1" x="54.87" y="-1.60" angle="90.00" type="human" speed="12.57" pos="54.87" lane="e0_0" slope="0.00"/>
    </timestep>
    <timestep time="22.50">
        <vehicle id="background.0" x="114.04" y="-1.60" angle="90.00" type="human" speed="13.57" pos="114.04" lane="e0_0" slope="0.00"/>
        <vehicle id="background.1" x="60.99" y="-1.60" angle="90.00" type="human" speed="12.24" pos="60.99" lane="e0_0" slope="0.00"/>
    </timestep>
    <timestep time="23.00">
        <vehicle id="background.0" x="120.75" y="-1.60" angle="90.00" type="human" speed="13.42" pos="120.75" lane="e0_0" slope="0.00"/>
        <vehicle id="background.1" x="67.18" y="-1.60" angle="90.00" type="human" speed="12.37" pos="67.18" lane="e0_0" slope="0.00"/>
    </timestep>
    <timestep time="23.50">
        <vehicle id="background.0" x="127.46" y="-1.60" angle="90.00" type="human" speed="13.42" pos="127.46" lane="e0_0" slope="0.00"/>
        <vehicle id="background.1" x="73.48" y="-1.60" angle="90.00" type="human" speed="12.61" pos="73.48" lane="e0_0" slope="0.00"/>
    </timestep>
    <timestep time="24.00">
        <vehicle id="background.0" x="134.17" y="-1.60" angle="90.00" type="human" speed="13.43" pos="134.17" lane="e0_0" slope="0.00"/>
        <vehicle id="background.1" x="79.78" y="-1.60" angle="90.00" type="human" speed="12.60" pos="79.78" lane="e0_0" slope="0.00"/>
    </timestep>
    <timestep time="24.50">
        <vehicle id="background.0" x="141.04" y="-1.60" angle="90.00" type="human" speed="13.73" pos="141.04" lane="e0_0" slope="0.00"/>
        <vehicle id="background.1" x="85.97" y="-1.60" angle="90.00" type="human" speed="12.37" pos="85.97" lane="e0_0" slope="0.00"/>
    </timestep>
    <timestep time="25.00">
        <vehicle id="background.0" x="147.89" y="-1.60" angle="90.00" type="human" speed="13.70" pos="147.89" lane="e0_0" slope="0.00"/>
        <vehicle id="background.1" x="92.25" y="-1.60" angle="90.00" type="human" speed="12.56" pos="92.25" lane="e0_0" slope="0.00"/>
    </timestep>
    <timestep time="25.50">
        <vehicle id="background.0" x="154.65" y="-1.60" angle="90.00" type="human" speed="13.53" pos="154.65" lane="e0_0" slope="0.00"/>
        <vehicle id="background.1" x="98.35" y="-1.60" angle="90.00" type="human" speed="12.20" pos="98.35" lane="e0_0" slope="0.00"/>
    </timestep>
    <timestep time="26.00">
        <vehicle id="background.0" x="161.59" y="-1.60" angle="90.00" type="human" speed="13.88" pos="161.59" lane="e0_0" slope="0.00"/>
        <vehicle id="background.1" x="104.55" y="-1.60" angle="90.00" type="human" speed="12.41" pos="104.55" lane="e0_0" slope="0.00"/>
    </timestep>
    <timestep time="26.50">
        <vehicle id="background.0" x="168.30" y="-1.60" angle="90.00" type="human" speed="13.42" pos="168.30" lane="e0_0" slope="0.00"/>
        <vehicle id="background.1" x="110.68" y="-1.60" angle="90.00" type="human" speed="12.25" pos="110.68" lane="e0_0" slope="0.00"/>
    </timestep>
    <timestep time="27.00">
        <vehicle id="background.0" x="175.06" y="-1.60" angle="90.00" type="human" speed="13.51" pos="175.06" lane="e0_0" slope="0.00"/>
        <vehicle id="background.1" x="116.88" y="-1.60" angle="90.00" type="human" speed="12.41" pos="116.88" lane="e0_0" slope="0.00"/>
    </timestep>
    <timestep time="27.50">
        <vehicle id="background.0" x="181.98" y="-1.60" angle="90.00" type="human" speed="13.85" pos="181.98" lane="e0_0" slope="0.00"/>
        <vehicle id="background.1" x="123.15" y="-1.60" angle="90.00" type="human" speed="12.53" pos="123.15" lane="e0_0" slope="0.00"/>
    </timestep>
    <timestep time="28.00">
        <vehicle id="background.0" x="188.68" y="-1.60" angle="90.00" type="human" speed="13.39" pos="188.68" lane="e0_0" slope="0.00"/>
        <vehicle id="background.1" x="129.39" y="-1.60" angle="90.00" type="human" speed="12.48" pos="129.39" lane="e0_0" slope="0.00"/>
    </timestep>
    <timestep time="28.50">
        <vehicle id="background.0" x="195.50" y="-1.60" angle="90.00" type="human" speed="13.64" pos="195.50" lane="e0_0" slope="0.00"/>
        <vehicle id="background.1" x="135.57" y="-1.60" angle="90.00" type="human" speed="12.36" pos="135.57" lane="e0_0" slope="0.00"/>
    </timestep>
    <timestep time="29.00">
        <vehicle id="background.0" x="202.43" y="-1.60" angle="90.00" type="human" speed="13.85" pos="202.43" lane="e0_0" slope="0.00"/>
        <vehicle id="background.1" x="141.68" y="-1.60" angle="90.00" type="human" speed="12.22" pos="141.68" lane="e0_0" slope="0.00"/>
    </timestep>
    <timestep time="29.50">
        <vehicle id="background.0" x="209.15" y="-1.60" angle="90.00" type="human" speed="13.45" pos="209.15" lane="e0_0" slope="0.00"/>
        <vehicle id="background.1" x="148.02" y="-1.60" angle="90.00" type="human" speed="12.68" pos="148.02" lane="e0_0" slope="0.00"/>
    </timestep>
    <timestep time="30.00">
        <vehicle id="background.0" x="215.90" y="-1.60" angle="90.00" type="human" speed="13.49" pos="215.90" lane="e0_0" slope="0.00"/>
        <vehicle id="background.1" x="154.14" y="-1.60" angle="90.00" type="human" speed="12.23" pos="154.14" lane="e0_0" slope="0.00"/>
    </timestep>
    <timestep time="30.50">
        <vehicle id="background.0" x="222.80" y="-1.60" angle="90.00" type="human" speed="13.82" pos="222.80" lane="e0_0" slope="0.00"/>
        <vehicle id="background.1" x="160.47" y="-1.60" angle="90.00" type="human" speed="12.66" pos="160.47" lane="e0_0" slope="0.00"/>
    </timestep>
    <timestep time="31.00">
        <vehicle id="background.0" x="229.63" y="-1.60" angle="90.00" type="human" speed="13.65" pos="229.63" lane="e0_0" slope="0.00"/>
        <vehicle id="background.1" x="166.65" y="-1.60" angle="90.00" type="human" speed="12.36" pos="166.65" lane="e0_0" slope="0.00"/>
    </timestep>
    <timestep time="31.50">
        <vehicle id="background.0" x="236.43" y="-1.60" angle="90.00" type="human" speed="13.60" pos="236.43" lane="e0_0" slope="0.00"/>
        <vehicle id="background.1" x="172.85" y="-1.60" angle="90.00" type="human" speed="12.40" pos="172.85" lane="e0_0" slope="0.00"/>
    </timestep>
    <timestep time="32.00">
        <vehicle id="background.0" x="243.22" y="-1.60" angle="90.00" type="human" speed="13.59" pos="243.22" lane="e0_0" slope="0.00"/>
        <vehicle id="background.1" x="179.06" y="-1.60" angle="90.00" type="human" speed="12.42" pos="179.06" lane="e0_0" slope="0.00"/>
    </timestep>
    <timestep time="32.50">
        <vehicle id="background.0" x="249.96" y="-1.60" angle="90.00" type="human" speed="13.47" pos="249.96" lane="e0_0" slope="0.00"/>
        <vehicle id="background.1" x="185.25" y="-1.60" angle="90.00" type="human" speed="12.37" pos="185.25" lane="e0_0" slope="0.00"/>
    </timestep>
    <timestep time="33.00">
        <vehicle id="background.0" x="256.73" y="-1.60" angle="90.00" type="human" speed="13.55" pos="256.73" lane="e0_0" slope="0.00"/>
        <vehicle id="background.1" x="191.56" y="-1.60" angle="90.00" type="human" speed="12.63" pos="191.56" lane="e0_0" slope="0.00"/>
    </timestep>
    <timestep time="33.50">
        <vehicle id="background.0" x="263.47" y="-1.60" angle="90.00" type="human" speed="13.48" pos="263.47" lane="e0_0" slope="0.00"/>
        <vehicle id="background.1" x="197.68" y="-1.60" angle="90.00" type="human" speed="12.24" pos="197.68" lane="e0_0" slope="0.00"/>
    </timestep>
    <timestep time="34.00">
        <vehicle id="background.0" x="270.37" y="-1.60" angle="90.00" type="human" speed="13.80" pos="270.37" lane="e0_0" slope="0.00"/>
        <vehicle id="background.1" x="203.82" y="-1.60" angle="90.00" type="human" speed="12.28" pos="203.82" lane="e0_0" slope="0.00"/>
    </timestep>
    <timestep time="34.50">
        <vehicle id="background.0" x="277.19" y="-1.60" angle="90.00" type="human" speed="13.64" pos="277.19" lane="e0_0" slope="0.00"/>
        <vehicle id="background.1" x="210.01" y="-1.60" angle="90.00" type="human" speed="12.37" pos="210.01" lane="e0_0" slope="0.00"/>
    </timestep>
    <timestep time="35.00">
        <vehicle id="background.0" x="284.14" y="-1.60" angle="90.00" type="human" speed="13.89" pos="284.14" lane="e0_0" slope="0.00"/>
        <vehicle id="background.1" x="216.22" y="-1.60" angle="90.00" type="human" speed="12.42" pos="216.22" lane="e0_0" slope="0.00"/>
    </timestep>
    <timestep time="35.50">
        <vehicle id="background.0" x="290.97" y="-1.60" angle="90.00" type="human" speed="13.66" pos="290.97" lane="e0_0" slope="0.00"/>
        <vehicle id="background.1" x="222.54" y="-1.60" angle="90.00" type="human" speed="12.65" pos="222.54" lane="e0_0" slope="0.00"/>
    </timestep>
    <timestep time="36.00">
        <vehicle id="background.0" x="297.85" y="-1.60" angle="90.00" type="human" speed="13.77" pos="297.85" lane="e0_0" slope="0.00"/>
        <vehicle id="background.1" x="228.64" y="-1.60" angle="90.00" type="human" speed="12.20" pos="228.64" lane="e0_0" slope="0.00"/>
    </timestep>
    <timestep time="36.50">
        <vehicle id="background.0" x="304.67" y="-1.60" angle="90.00" type="human" speed="13.84" pos="4.67" lane="e1_0" slope="0.00"/>
        <vehicle id="background.1" x="234.87" y="-1.60" angle="90.00" type="human" speed="12.45" pos="234.87" lane="e0_0" slope="0.00"/>
    </timestep>
    <timestep time="37.00">
        <vehicle id="background.0" x="311.38" y="-1.60" angle="90.00" type="human" speed="13.41" pos="11.38" lane="e1_0" slope="0.00"/>
        <vehicle id="background.1" x="241.02" y="-1.60" angle="90.00" type="human" speed="12.31" pos="241.02" lane="e0_0" slope="0.00"/>
    </timestep>
    <timestep time="37.50">
        <vehicle id="background.0" x="318.28" y="-1.60" angle="90.00" type="human" speed="13.81" pos="18.28" lane="e1_0" slope="0.00"/>
        <vehicle id="background.1" x="247.33" y="-1.60" angle="90.00" type="human" speed="12.61" pos="247.33" lane="e0_0" slope="0.00"/>
    </timestep>
    <timestep time="38.00">
        <vehicle id="background.0" x="325.09" y="-1.60" angle="90.00" type="human" speed="13.61" pos="25.09" lane="e1_0" slope="0.00"/>
        <vehicle id="background.1" x="253.43" y="-1.60" angle="90.00" type="human" speed="12.21" pos="253.43" lane="e0_0" slope="0.00"/>
    </timestep>
    <timestep time="38.50">
        <vehicle id="background.0" x="331.95" y="-1.60" angle="90.00" type="human" speed="13.73" pos="31.95" lane="e1_0" slope="0.00"/>
        <vehicle id="background.1" x="259.63" y="-1.60" angle="90.00" type="human" speed="12.40" pos="259.63" lane="e0_0" slope="0.00"/>
    </timestep>
    <timestep time="39.00">
        <vehicle id="background.0" x="338.65" y="-1.60" angle="90.00" type="human" speed="13.39" pos="38.65" lane="e1_0" slope="0.00"/>
        <vehicle id="background.1" x="265.96" y="-1.60" angle="90.00" type="human" speed="12.67" pos="265.96" lane="e0_0" slope="0.00"/>
    </timestep>
    <timestep time="39.50">
        <vehicle id="background.0" x="345.57" y="-1.60" angle="90.00" type="human" speed="13.83" pos="45.57" lane="e1_0" slope="0.00"/>
        <vehicle id="background.1" x="272.13" y="-1.60" angle="90.00" type="human" speed="12.33" pos="272.13" lane="e0_0" slope="0.00"/>
    </timestep>
    <timestep time="40.00">
        <vehicle id="background.1" x="278.33" y="-1.60" angle="90.00" type="human" speed="12.40" pos="278.33" lane="e0_0" slope="0.00"/>
    </timestep>
    <timestep time="40.50">
        <vehicle id="background.1" x="284.61" y="-1.60" angle="90.00" type="human" speed="12.57" pos="284.61" lane="e0_0" slope="0.00"/>
    </timestep>
    <timestep time="41.00">
        <vehicle id="background.1" x="290.89" y="-1.60" angle="90.00" type="human" speed="12.56" pos="290.89" lane="e0_0" slope="0.00"/>
    </timestep>
    <timestep time="41.50">
        <vehicle id="background.1" x="297.07" y="-1.60" angle="90.00" type="human" speed="12.36" pos="297.07" lane="e0_0" slope="0.00"/>
    </timestep>
    <timestep time="42.00">
        <vehicle id="background.1" x="303.14" y="-1.60" angle="90.00" type="human" speed="12.34" pos="3.14" lane="e1_0" slope="0.00"/>
    </timestep>
    <timestep time="42.50">
        <vehicle id="background.1" x="309.25" y="-1.60" angle="90.00" type="human" speed="12.21" pos="9.25" lane="e1_0" slope="0.00"/>
    </timestep>
    <timestep time="43.00">
        <vehicle id="background.1" x="315.36" y="-1.60" angle="90.00" type="human" speed="12.22" pos="15.36" lane="e1_0" slope="0.00"/>
    </timestep>
    <timestep time="43.50">
        <vehicle id="background.1" x="321.56" y="-1.60" angle="90.00" type="human" speed="12.41" pos="21.56" lane="e1_0" slope="0.00"/>
    </timestep>
    <timestep time="44.00">
        <vehicle id="background.1" x="327.80" y="-1.60" angle="90.00" type="human" speed="12.47" pos="27.80" lane="e1_0" slope="0.00"/>
    </timestep>
    <timestep time="44.50">
        <vehicle id="background.1" x="333.95" y="-1.60" angle="90.00" type="human" speed="12.31" pos="33.95" lane="e1_0" slope="0.00"/>
    </timestep>
    <timestep time="45.00">
        <vehicle id="background.1" x="340.23" y="-1.60" angle="90.00" type="human" speed="12.55" pos="40.23" lane="e1_0" slope="0.00"/>
    </timestep>
    <timestep time="45.50">
        <vehicle id="background.1" x="346.47" y="-1.60" angle="90.00" type="human" speed="12.47" pos="46.47" lane="e1_0" slope="0.00"/>
    </timestep>
    <timestep time="46.00"/>
    <timestep time="46.50"/>
    <timestep time="47.00"/>
    <timestep time="47.50"/>
    <timestep time="48.00"/>
    <timestep time="48.50"/>
    <timestep time="49.00"/>
    <timestep time="49.50"/>
    <timestep time="50.00"/>
    <timestep time="50.50"/>
    <timestep time="51.00"/>
    <timestep time="51.50"/>
    <timestep time="52.00"/>
    <timestep time="52.50"/>
    <timestep time="53.00"/>
    <timestep time="53.50"/>
    <timestep time="54.00"/>
    <timestep time="54.50"/>
    <timestep time="55.00"/>
    <timestep time="55.50"/>
    <timestep time="56.00"/>
    <timestep time="56.50"/>
    <timestep time="57.00"/>
    <timestep time="57.50"/>
    <timestep time="58.00"/>
    <timestep time="58.50"/>
    <timestep time="59.00"/>
    <timestep time="59.50"/>
    <timestep time="60.00"/>
    <timestep time="60.50"/>
    <timestep time="61.00"/>
    <timestep time="61.50"/>
    <timestep time="62.00"/>
    <timestep time="62.50"/>
    <timestep time="63.00"/>
    <timestep time="63.50"/>
    <timestep time="64.00"/>
    <timestep time="64.50"/>
    <timestep time="65.00"/>
    <timestep time="65.50"/>
    <timestep time="66.00"/>
    <timestep time="66.50"/>
    <timestep time="67.00"/>
    <timestep time="67.50"/>
    <timestep time="68.00"/>
    <timestep time="68.50"/>
    <timestep time="69.00"/>
    <timestep time="69.50"/>
    <timestep time="70.00"/>
    <timestep time="70.50">
        <vehicle id="ego" x="5.10" y="-1.60" angle="90.00" type="ego_type" speed="0.00" pos="5.10" lane="e0_0" slope="0.00"/>
    </timestep>
    <timestep time="71.00">
        <vehicle id="ego" x="5.10" y="-1.60" angle="90.00" type="ego_type" speed="0.00" pos="5.10" lane="e0_0" slope="0.00"/>
    </timestep>
    <timestep time="71.50">
        <vehicle id="ego" x="5.10" y="-1.60" angle="90.00" type="ego_type" speed="0.00" pos="5.10" lane="e0_0" slope="0.00"/>
    </timestep>
    <timestep time="72.00">
        <vehicle id="ego" x="5.10" y="-1.60" angle="90.00" type="ego_type" speed="0.00" pos="5.10" lane="e0_0" slope="0.00"/>
    </timestep>
    <timestep time="72.50">
        <vehicle id="ego" x="5.60" y="-1.60" angle="90.00" type="ego_type" speed="1.00" pos="5.60" lane="e0_0" slope="0.00"/>
    </timestep>
    <timestep time="73.00">
        <vehicle id="ego" x="6.35" y="-1.60" angle="90.00" type="ego_type" speed="1.50" pos="6.35" lane="e0_0" slope="0.00"/>
    </timestep>
    <timestep time="73.50">
        <vehicle id="ego" x="7.60" y="-1.60" angle="90.00" type="ego_type" speed="2.50" pos="7.60" lane="e0_0" slope="0.00"/>
    </timestep>
    <timestep time="74.00">
        <vehicle id="ego" x="9.35" y="-1.60" angle="90.00" type="ego_type" speed="3.50" pos="9.35" lane="e0_0" slope="0.00"/>
    </timestep>
    <timestep time="74.50">
        <vehicle id="ego" x="11.60" y="-1.60" angle="90.00" type="ego_type" speed="4.50" pos="11.60" lane="e0_0" slope="0.00"/>
    </timestep>
    <timestep time="75.00">
        <vehicle id="ego" x="14.35" y="-1.60" angle="90.00" type="ego_type" speed="5.50" pos="14.35" lane="e0_0" slope="0.00"/>
    </timestep>
    <timestep time="75.50">
        <vehicle id="ego" x="17.60" y="-1.60" angle="90.00" type="ego_type" speed="6.50" pos="17.60" lane="e0_0" slope="0.00"/>
    </timestep>
    <timestep time="76.00">
        <vehicle id="ego" x="21.35" y="-1.60" angle="90.00" type="ego_type" speed="7.50" pos="21.35" lane="e0_0" slope="0.00"/>
    </timestep>
    <timestep time="76.50">
        <vehicle id="background.2" x="5.10" y="-1.60" angle="90.00" type="human" speed="8.90" pos="5.10" lane="e0_0" slope="0.00"/>
        <vehicle id="ego" x="24.73" y="-1.60" angle="90.00" type="ego_type" speed="6.75" pos="24.73" lane="e0_0" slope="0.00"/>
    </timestep>
    <timestep time="77.00">
        <vehicle id="background.2" x="9.45" y="-1.60" angle="90.00" type="human" speed="8.71" pos="9.45" lane="e0_0" slope="0.00"/>
        <vehicle id="ego" x="28.10" y="-1.60" angle="90.00" type="ego_type" speed="6.75" pos="28.10" lane="e0_0" slope="0.00"/>
    </timestep>
    <timestep time="77.50">
        <vehicle id="background.2" x="13.49" y="-1.60" angle="90.00" type="human" speed="8.07" pos="13.49" lane="e0_0" slope="0.00"/>
        <vehicle id="ego" x="31.48" y="-1.60" angle="90.00" type="ego_type" speed="6.75" pos="31.48" lane="e0_0" slope="0.00"/>
    </timestep>
    <timestep time="78.00">
        <vehicle id="background.2" x="17.58" y="-1.60" angle="90.00" type="human" speed="8.18" pos="17.58" lane="e0_0" slope="0.00"/>
        <vehicle id="ego" x="34.85" y="-1.60" angle="90.00" type="ego_type" speed="6.75" pos="34.85" lane="e0_0" slope="0.00"/>
    </timestep>
    <timestep time="78.50">
        <vehicle id="background.2" x="21.36" y="-1.60" angle="90.00" type="human" speed="7.57" pos="21.36" lane="e0_0" slope="0.00"/>
        <vehicle id="ego" x="38.23" y="-1.60" angle="90.00" type="ego_type" speed="6.75" pos="38.23" lane="e0_0" slope="0.00"/>
    </timestep>
    <timestep time="79.00">
        <vehicle id="background.2" x="25.13" y="-1.60" angle="90.00" type="human" speed="7.54" pos="25.13" lane="e0_0" slope="0.00"/>
        <vehicle id="ego" x="41.60" y="-1.60" angle="90.00" type="ego_type" speed="6.75" pos="41.60" lane="e0_0" slope="0.00"/>
    </timestep>
    <timestep time="79.50">
        <vehicle id="background.2" x="28.72" y="-1.60" angle="90.00" type="human" speed="7.17" pos="28.72" lane="e0_0" slope="0.00"/>
        <vehicle id="ego" x="44.98" y="-1.60" angle="90.00" type="ego_type" speed="6.75" pos="44.98" lane="e0_0" slope="0.00"/>
    </timestep>
    <timestep time="80.00">
        <vehicle id="background.2" x="32.30" y="-1.60" angle="90.00" type="human" speed="7.16" pos="32.30" lane="e0_0" slope="0.00"/>
        <vehicle id="ego" x="48.35" y="-1.60" angle="90.00" type="ego_type" speed="6.75" pos="48.35" lane="e0_0" slope="0.00"/>
    </timestep>
    <timestep time="80.50">
        <vehicle id="background.2" x="36.00" y="-1.60" angle="90.00" type="human" speed="7.40" pos="36.00" lane="e0_0" slope="0.00"/>
        <vehicle id="ego" x="51.73" y="-1.60" angle="90.00" type="ego_type" speed="6.75" pos="51.73" lane="e0_0" slope="0.00"/>
    </timestep>
    <timestep time="81.00">
        <vehicle id="background.2" x="39.51" y="-1.60" angle="90.00" type="human" speed="7.03" pos="39.51" lane="e0_0" slope="0.00"/>
        <vehicle id="ego" x="55.10" y="-1.60" angle="90.00" type="ego_type" speed="6.75" pos="55.10" lane="e0_0" slope="0.00"/>
    </timestep>
    <timestep time="81.50">
        <vehicle id="background.2" x="42.99" y="-1.60" angle="90.00" type="human" speed="6.95" pos="42.99" lane="e0_0" slope="0.00"/>
        <vehicle id="ego" x="58.48" y="-1.60" angle="90.00" type="ego_type" speed="6.75" pos="58.48" lane="e0_0" slope="0.00"/>
    </timestep>
    <timestep time="82.00">
        <vehicle id="background.2" x="46.40" y="-1.60" angle="90.00" type="human" speed="6.82" pos="46.40" lane="e0_0" slope="0.00"/>
        <vehicle id="ego" x="61.85" y="-1.60" angle="90.00" type="ego_type" speed="6.75" pos="61.85" lane="e0_0" slope="0.00"/>
    </timestep>
    <timestep time="82.50">
        <vehicle id="background.2" x="49.81" y="-1.60" angle="90.00" type="human" speed="6.82" pos="49.81" lane="e0_0" slope="0.00"/>
        <vehicle id="ego" x="65.22" y="-1.60" angle="90.00" type="ego_type" speed="6.75" pos="65.22" lane="e0_0" slope="0.00"/>
    </timestep>
    <timestep time="83.00">
        <vehicle id="background.2" x="53.38" y="-1.60" angle="90.00" type="human" speed="7.15" pos="53.38" lane="e0_0" slope="0.00"/>
        <vehicle id="ego" x="68.60" y="-1.60" angle="90.00" type="ego_type" speed="6.75" pos="68.60" lane="e0_0" slope="0.00"/>
    </timestep>
    <timestep time="83.50">
        <vehicle id="background.2" x="56.87" y="-1.60" angle="90.00" type="human" speed="6.98" pos="56.87" lane="e0_0" slope="0.00"/>
        <vehicle id="ego" x="71.97" y="-1.60" angle="90.00" type="ego_type" speed="6.75" pos="71.97" lane="e0_0" slope="0.00"/>
    </timestep>
    <timestep time="84.00">
        <vehicle id="background.2" x="60.34" y="-1.60" angle="90.00" type="human" speed="6.93" pos="60.34" lane="e0_0" slope="0.00"/>
        <vehicle id="ego" x="75.35" y="-1.60" angle="90.00" type="ego_type" speed="6.75" pos="75.35" lane="e0_0" slope="0.00"/>
    </timestep>
    <timestep time="84.50">
        <vehicle id="background.2" x="63.87" y="-1.60" angle="90.00" type="human" speed="7.05" pos="63.87" lane="e0_0" slope="0.00"/>
        <vehicle id="ego" x="78.72" y="-1.60" angle="90.00" type="ego_type" speed="6.75" pos="78.72" lane="e0_0" slope="0.00"/>
    </timestep>
    <timestep time="85.00">
        <vehicle id="background.2" x="67.24" y="-1.60" angle="90.00" type="human" speed="6.75" pos="67.24" lane="e0_0" slope="0.00"/>
        <vehicle id="ego" x="82.10" y="-1.60" angle="90.00" type="ego_type" speed="6.75" pos="82.10" lane="e0_0" slope="0.00"/>
    </timestep>
    <timestep time="85.50">
        <vehicle id="background.2" x="70.50" y="-1.60" angle="90.00" type="human" speed="6.53" pos="70.50" lane="e0_0" slope="0.00"/>
        <vehicle id="ego" x="85.47" y="-1.60" angle="90.00" type="ego_type" speed="6.75" pos="85.47" lane="e0_0" slope="0.00"/>
    </timestep>
    <timestep time="86.00">
        <vehicle id="background.2" x="73.96" y="-1.60" angle="90.00" type="human" speed="6.92" pos="73.96" lane="e0_0" slope="0.00"/>
        <vehicle id="ego" x="88.85" y="-1.60" angle="90.00" type="ego_type" speed="6.75" pos="88.85" lane="e0_0" slope="0.00"/>
    </timestep>
    <timestep time="86.50">
        <vehicle id="background.2" x="77.36" y="-1.60" angle="90.00" type="human" speed="6.80" pos="77.36" lane="e0_0" slope="0.00"/>
        <vehicle id="ego" x="92.22" y="-1.60" angle="90.00" type="ego_type" speed="6.75" pos="92.22" lane="e0_0" slope="0.00"/>
    </timestep>
    <timestep time="87.00">
        <vehicle id="background.2" x="80.85" y="-1.60" angle="90.00" type="human" speed="6.98" pos="80.85" lane="e0_0" slope="0.00"/>
        <vehicle id="ego" x="95.60" y="-1.60" angle="90.00" type="ego_type" speed="6.75" pos="95.60" lane="e0_0" slope="0.00"/>
    </timestep>
    <timestep time="87.50">
        <vehicle id="background.2" x="84.26" y="-1.60" angle="90.00" type="human" speed="6.82" pos="84.26" lane="e0_0" slope="0.00"/>
        <vehicle id="ego" x="98.97" y="-1.60" angle="90.00" type="ego_type" speed="6.75" pos="98.97" lane="e0_0" slope="0.00"/>
    </timestep>
    <timestep time="88.00">
        <vehicle id="background.2" x="87.58" y="-1.60" angle="90.00" type="human" speed="6.63" pos="87.58" lane="e0_0" slope="0.00"/>