<?xml version="1.0" encoding="UTF-8"?>

<!-- generated on 2026-05-15 22:33:00 by Eclipse SUMO sumo Version 1.24.0
<sumoConfiguration xmlns:xsi="http://www.w3.org/2001/XMLSchema-instance" xsi:noNamespaceSchemaLocation="http://sumo.dlr.de/xsd/sumoConfiguration.xsd">

    <input>
        <net-file value="scenarios/simple_arterial/simple_arterial.net.xml"/>
        <route-files value="scenarios/simple_arterial/simple_arterial.rou.xml"/>
        <additional-files value="scenarios/simple_arterial/simple_arterial.tls.xml"/>
    </input>

    <output>
        <fcd-output value="runs/fcd_rlhf/episode_00014_seed_49.fcd.xml"/>
    </output>

    <time>
        <begin value="0"/>
        <end value="900"/>
        <step-length value="0.5"/>
    </time>

    <report>
        <no-warnings value="true"/>
    </report>

    <traci_server>
        <remote-port value="22606"/>
    </traci_server>

    <random_number>
        <seed value="49"/>
    </random_number>

</sumoConfiguration>
-->

<fcd-export xmlns:xsi="http://www.w3.org/2001/XMLSchema-instance" xsi:noNamespaceSchemaLocation="http://sumo.dlr.de/xsd/fcd_file.xsd">
    <timestep time="0.00"/>
    <timestep time="0.50"/>
    <timestep time="1.00"/>
    <timestep time="1.50"/>
    <timestep time="2.00"/>
    <timestep time="2.50"/>
    <timestep time="3.00"/>
    <timestep time="3.50"/>
    <timestep time="4.00"/>
    <timestep time="4.50"/>
    <timestep time="5.00"/>
    <timestep time="5.50"/>
    <timestep time="6.00"/>
    <timestep time="6.50"/>
    <timestep time="7.00"/>
    <timestep time="7.50"/>
    <timestep time="8.00"/>
    <timestep time="8.50"/>
    <timestep time="9.00"/>
    <timestep time="9.50"/>
    <timestep time="10.00"/>
    <timestep time="10.50"/>
    <timestep time="11.00"/>
    <timestep time="11.50"/>
    <timestep time="12.00"/>
    <timestep time="12.50">
        <vehicle id="background.0" x="5.10" y="-1.60" angle="90.00" type="human" speed="11.26" pos="5.10" lane="e0_0" slope="0.00"/>
    </timestep>
    <timestep time="13.00">
        <vehicle id="background.0" x="10.61" y="-1.60" angle="90.00" type="human" speed="11.01" pos="10.61" lane="e0_0" slope="0.00"/>
    </timestep>
    <timestep time="13.50">
        <vehicle id="background.0" x="16.20" y="-1.60" angle="90.00" type="human" speed="11.19" pos="16.20" lane="e0_0" slope="0.00"/>
    </timestep>
    <timestep time="14.00">
        <vehicle id="background.0" x="21.78" y="-1.60" angle="90.00" type="human" speed="11.15" pos="21.78" lane="e0_0" slope="0.00"/>
    </timestep>
    <timestep time="14.50">
        <vehicle id="background.0" x="27.39" y="-1.60" angle="90.00" type="human" speed="11.22" pos="27.39" lane="e0_0" slope="0.00"/>
    </timestep>
    <timestep time="15.00">
        <vehicle id="background.0" x="32.95" y="-1.60" angle="90.00" type="human" speed="11.13" pos="32.95" lane="e0_0" slope="0.00"/>
    </timestep>
    <timestep time="15.50">
        <vehicle id="background.0" x="38.43" y="-1.60" angle="90.00" type="human" speed="10.95" pos="38.43" lane="e0_0" slope="0.00"/>
    </timestep>
    <timestep time="16.00">
        <vehicle id="background.0" x="43.96" y="-1.60" angle="90.00" type="human" speed="11.06" pos="43.96" lane="e0_0" slope="0.00"/>
    </timestep>
    <timestep time="16.50">
        <vehicle id="background.0" x="49.58" y="-1.60" angle="90.00" type="human" speed="11.25" pos="49.58" lane="e0_0" slope="0.00"/>
    </timestep>
    <timestep time="17.00">
        <vehicle id="background.0" x="55.12" y="-1.60" angle="90.00" type="human" speed="11.07" pos="55.12" lane="e0_0" slope="0.00"/>
    </timestep>
    <timestep time="17.50">
        <vehicle id="background.0" x="60.71" y="-1.60" angle="90.00" type="human" speed="11.18" pos="60.71" lane="e0_0" slope="0.00"/>
    </timestep>
    <timestep time="18.00">
        <vehicle id="background.0" x="66.09" y="-1.60" angle="90.00" type="human" speed="10.76" pos="66.09" lane="e0_0" slope="0.00"/>
    </timestep>
    <timestep time="18.50">
        <vehicle id="background.0" x="71.48" y="-1.60" angle="90.00" type="human" speed="10.78" pos="71.48" lane="e0_0" slope="0.00"/>
    </timestep>
    <timestep time="19.00">
        <vehicle id="background.0" x="77.01" y="-1.60" angle="90.00" type="human" speed="11.06" pos="77.01" lane="e0_0" slope="0.00"/>
    </timestep>
    <timestep time="19.50">
        <vehicle id="background.0" x="82.44" y="-1.60" angle="90.00" type="human" speed="10.86" pos="82.44" lane="e0_0" slope="0.00"/>
    </timestep>
    <timestep time="20.00">
        <vehicle id="background.0" x="87.88" y="-1.60" angle="90.00" type="human" speed="10.87" pos="87.88" lane="e0_0" slope="0.00"/>
    </timestep>
    <timestep time="20.50">
        <vehicle id="background.0" x="93.44" y="-1.60" angle="90.00" type="human" speed="11.14" pos="93.44" lane="e0_0" slope="0.00"/>
    </timestep>
    <timestep time="21.00">
        <vehicle id="background.0" x="98.88" y="-1.60" angle="90.00" type="human" speed="10.88" pos="98.88" lane="e0_0" slope="0.00"/>
    </timestep>
    <timestep time="21.50">
        <vehicle id="background.0" x="104.43" y="-1.60" angle="90.00" type="human" speed="11.10" pos="104.43" lane="e0_0" slope="0.00"/>
    </timestep>
    <timestep time="22.00">
        <vehicle id="background.0" x="109.98" y="-1.60" angle="90.00" type="human" speed="11.10" pos="109.98" lane="e0_0" slope="0.00"/>
    </timestep>
    <timestep time="22.50">
        <vehicle id="background.0" x="115.50" y="-1.60" angle="90.00" type="human" speed="11.04" pos="115.50" lane="e0_0" slope="0.00"/>
    </timestep>
    <timestep time="23.00">
        <vehicle id="background.0" x="121.05" y="-1.60" angle="90.00" type="human" speed="11.09" pos="121.05" lane="e0_0" slope="0.00"/>
    </timestep>
    <timestep time="23.50">
        <vehicle id="background.0" x="126.64" y="-1.60" angle="90.00" type="human" speed="11.19" pos="126.64" lane="e0_0" slope="0.00"/>
    </timestep>
    <timestep time="24.00">
        <vehicle id="background.0" x="132.18" y="-1.60" angle="90.00" type="human" speed="11.08" pos="132.18" lane="e0_0" slope="0.00"/>
    </timestep>
    <timestep time="24.50">
        <vehicle id="background.0" x="137.67" y="-1.60" angle="90.00" type="human" speed="10.96" pos="137.67" lane="e0_0" slope="0.00"/>
    </timestep>
    <timestep time="25.00">
        <vehicle id="background.0" x="143.26" y="-1.60" angle="90.00" type="human" speed="11.19" pos="143.26" lane="e0_0" slope="0.00"/>
    </timestep>
    <timestep time="25.50">
        <vehicle id="background.0" x="148.64" y="-1.60" angle="90.00" type="human" speed="10.77" pos="148.64" lane="e0_0" slope="0.00"/>
    </timestep>
    <timestep time="26.00">
        <vehicle id="background.0" x="154.03" y="-1.60" angle="90.00" type="human" speed="10.77" pos="154.03" lane="e0_0" slope="0.00"/>
    </timestep>
    <timestep time="26.50">
        <vehicle id="background.0" x="159.64" y="-1.60" angle="90.00" type="human" speed="11.21" pos="159.64" lane="e0_0" slope="0.00"/>
    </timestep>
    <timestep time="27.00">
        <vehicle id="background.0" x="165.04" y="-1.60" angle="90.00" type="human" speed="10.80" pos="165.04" lane="e0_0" slope="0.00"/>
    </timestep>
    <timestep time="27.50">
        <vehicle id="background.0" x="170.60" y="-1.60" angle="90.00" type="human" speed="11.11" pos="170.60" lane="e0_0" slope="0.00"/>
    </timestep>
    <timestep time="28.00">
        <vehicle id="background.0" x="176.09" y="-1.60" angle="90.00" type="human" speed="10.98" pos="176.09" lane="e0_0" slope="0.00"/>
    </timestep>
    <timestep time="28.50">
        <vehicle id="background.0" x="181.66" y="-1.60" angle="90.00" type="human" speed="11.14" pos="181.66" lane="e0_0" slope="0.00"/>
    </timestep>
    <timestep time="29.00">
        <vehicle id="background.0" x="187.21" y="-1.60" angle="90.00" type="human" speed="11.10" pos="187.21" lane="e0_0" slope="0.00"/>
    </timestep>
    <timestep time="29.50">
        <vehicle id="background.0" x="192.71" y="-1.60" angle="90.00" type="human" speed="11.00" pos="192.71" lane="e0_0" slope="0.00"/>
    </timestep>
    <timestep time="30.00">
        <vehicle id="background.0" x="198.11" y="-1.60" angle="90.00" type="human" speed="10.82" pos="198.11" lane="e0_0" slope="0.00"/>
    </timestep>
    <timestep time="30.50">
        <vehicle id="background.0" x="203.73" y="-1.60" angle="90.00" type="human" speed="11.24" pos="203.73" lane="e0_0" slope="0.00"/>
    </timestep>
    <timestep time="31.00">
        <vehicle id="background.0" x="209.19" y="-1.60" angle="90.00" type="human" speed="10.92" pos="209.19" lane="e0_0" slope="0.00"/>
    </timestep>
    <timestep time="31.50">
        <vehicle id="background.0" x="214.76" y="-1.60" angle="90.00" type="human" speed="11.13" pos="214.76" lane="e0_0" slope="0.00"/>
    </timestep>
    <timestep time="32.00">
        <vehicle id="background.0" x="220.29" y="-1.60" angle="90.00" type="human" speed="11.06" pos="220.29" lane="e0_0" slope="0.00"/>
    </timestep>
    <timestep time="32.50">
        <vehicle id="background.0" x="225.75" y="-1.60" angle="90.00" type="human" speed="10.92" pos="225.75" lane="e0_0" slope="0.00"/>
    </timestep>
    <timestep time="33.00">
        <vehicle id="background.0" x="231.25" y="-1.60" angle="90.00" type="human" speed="11.01" pos="231.25" lane="e0_0" slope="0.00"/>
        <vehicle id="ego" x="5.10" y="-1.60" angle="90.00" type="ego_type" speed="7.71" pos="5.10" lane="e0_0" slope="0.00"/>
    </timestep>
    <timestep time="33.50">
        <vehicle id="background.0" x="236.69" y="-1.60" angle="90.00" type="human" speed="10.86" pos="236.69" lane="e0_0" slope="0.00"/>
        <vehicle id="ego" x="9.21" y="-1.60" angle="90.00" type="ego_type" speed="8.21" pos="9.21" lane="e0_0" slope="0.00"/>
    </timestep>
    <timestep time="34.00">
        <vehicle id="background.0" x="242.22" y="-1.60" angle="90.00" type="human" speed="11.08" pos="242.22" lane="e0_0" slope="0.00"/>
        <vehicle id="ego" x="13.56" y="-1.60" angle="90.00" type="ego_type" speed="8.71" pos="13.56" lane="e0_0" slope="0.00"/>
    </timestep>
    <timestep time="34.50">
        <vehicle id="background.0" x="247.83" y="-1.60" angle="90.00" type="human" speed="11.20" pos="247.83" lane="e0_0" slope="0.00"/>
        <vehicle id="ego" x="17.42" y="-1.60" angle="90.00" type="ego_type" speed="7.71" pos="17.42" lane="e0_0" slope="0.00"/>
    </timestep>
    <timestep time="35.00">
        <vehicle id="background.0" x="253.41" y="-1.60" angle="90.00" type="human" speed="11.18" pos="253.41" lane="e0_0" slope="0.00"/>
        <vehicle id="ego" x="21.27" y="-1.60" angle="90.00" type="ego_type" speed="7.71" pos="21.27" lane="e0_0" slope="0.00"/>
    </timestep>
    <timestep time="35.50">
        <vehicle id="background.0" x="259.04" y="-1.60" angle="90.00" type="human" speed="11.25" pos="259.04" lane="e0_0" slope="0.00"/>
        <vehicle id="ego" x="25.13" y="-1.60" angle="90.00" type="ego_type" speed="7.71" pos="25.13" lane="e0_0" slope="0.00"/>
    </timestep>
    <timestep time="36.00">
        <vehicle id="background.0" x="264.47" y="-1.60" angle="90.00" type="human" speed="10.86" pos="264.47" lane="e0_0" slope="0.00"/>
        <vehicle id="ego" x="28.99" y="-1.60" angle="90.00" type="ego_type" speed="7.71" pos="28.99" lane="e0_0" slope="0.00"/>
    </timestep>
    <timestep time="36.50">
        <vehicle id="background.0" x="270.03" y="-1.60" angle="90.00" type="human" speed="11.12" pos="270.03" lane="e0_0" slope="0.00"/>
        <vehicle id="ego" x="32.34" y="-1.60" angle="90.00" type="ego_type" speed="6.71" pos="32.34" lane="e0_0" slope="0.00"/>
    </timestep>
    <timestep time="37.00">
        <vehicle id="background.0" x="275.44" y="-1.60" angle="90.00" type="human" speed="10.83" pos="275.44" lane="e0_0" slope="0.00"/>
        <vehicle id="ego" x="35.57" y="-1.60" angle="90.00" type="ego_type" speed="6.46" pos="35.57" lane="e0_0" slope="0.00"/>
    </timestep>
    <timestep time="37.50">
        <vehicle id="background.0" x="280.94" y="-1.60" angle="90.00" type="human" speed="10.99" pos="280.94" lane="e0_0" slope="0.00"/>
        <vehicle id="background.1" x="5.10" y="-1.60" angle="90.00" type="human" speed="11.20" pos="5.10" lane="e0_0" slope="0.00"/>
        <vehicle id="ego" x="38.30" y="-1.60" angle="90.00" type="ego_type" speed="5.46" pos="38.30" lane="e0_0" slope="0.00"/>
    </timestep>
    <timestep time="38.00">
        <vehicle id="background.0" x="286.40" y="-1.60" angle="90.00" type="human" speed="10.91" pos="286.40" lane="e0_0" slope="0.00"/>
        <vehicle id="background.1" x="10.69" y="-1.60" angle="90.00" type="human" speed="11.17" pos="10.69" lane="e0_0" slope="0.00"/>
        <vehicle id="ego" x="40.53" y="-1.60" angle="90.00" type="ego_type" speed="4.46" pos="40.53" lane="e0_0" slope="0.00"/>
    </timestep>
    <timestep time="38.50">
        <vehicle id="background.0" x="291.85" y="-1.60" angle="90.00" type="human" speed="10.90" pos="291.85" lane="e0_0" slope="0.00"/>
        <vehicle id="background.1" x="15.54" y="-1.60" angle="90.00" type="human" speed="9.71" pos="15.54" lane="e0_0" slope="0.00"/>
        <vehicle id="ego" x="42.27" y="-1.60" angle="90.00" type="ego_type" speed="3.46" pos="42.27" lane="e0_0" slope="0.00"/>
    </timestep>
    <timestep time="39.00">
        <vehicle id="background.0" x="297.43" y="-1.60" angle="90.00" type="human" speed="11.16" pos="297.43" lane="e0_0" slope="0.00"/>
        <vehicle id="background.1" x="20.06" y="-1.60" angle="90.00" type="human" speed="9.04" pos="20.06" lane="e0_0" slope="0.00"/>
        <vehicle id="ego" x="43.37" y="-1.60" angle="90.00" type="ego_type" speed="2.21" pos="43.37" lane="e0_0" slope="0.00"/>
    </timestep>
    <timestep time="39.50">
        <vehicle id="background.0" x="302.73" y="-1.60" angle="90.00" type="human" speed="10.79" pos="2.73" lane="e1_0" slope="0.00"/>
        <vehicle id="background.1" x="23.88" y="-1.60" angle="90.00" type="human" speed="7.63" pos="23.88" lane="e0_0" slope="0.00"/>
        <vehicle id="ego" x="44.35" y="-1.60" angle="90.00" type="ego_type" speed="1.96" pos="44.35" lane="e0_0" slope="0.00"/>
    </timestep>
    <timestep time="40.00">
        <vehicle id="background.0" x="308.19" y="-1.60" angle="90.00" type="human" speed="10.92" pos="8.19" lane="e1_0" slope="0.00"/>
        <vehicle id="background.1" x="27.16" y="-1.60" angle="90.00" type="human" speed="6.56" pos="27.16" lane="e0_0" slope="0.00"/>
        <vehicle id="ego" x="45.46" y="-1.60" angle="90.00" type="ego_type" speed="2.21" pos="45.46" lane="e0_0" slope="0.00"/>
    </timestep>
    <timestep time="40.50">
        <vehicle id="background.0" x="313.73" y="-1.60" angle="90.00" type="human" speed="11.10" pos="13.73" lane="e1_0" slope="0.00"/>
        <vehicle id="background.1" x="30.10" y="-1.60" angle="90.00" type="human" speed="5.89" pos="30.10" lane="e0_0" slope="0.00"/>
        <vehicle id="ego" x="45.94" y="-1.60" angle="90.00" type="ego_type" speed="0.96" pos="45.94" lane="e0_0" slope="0.00"/>
    </timestep>
    <timestep time="41.00">
        <vehicle id="background.0" x="319.35" y="-1.60" angle="90.00" type="human" speed="11.24" pos="19.35" lane="e1_0" slope="0.00"/>
        <vehicle id="background.1" x="32.52" y="-1.60" angle="90.00" type="human" speed="4.83" pos="32.52" lane="e0_0" slope="0.00"/>
        <vehicle id="ego" x="46.17" y="-1.60" angle="90.00" type="ego_type" speed="0.46" pos="46.17" lane="e0_0" slope="0.00"/>
    </timestep>
    <timestep time="41.50">
        <vehicle id="background.0" x="324.86" y="-1.60" angle="90.00" type="human" speed="11.00" pos="24.86" lane="e1_0" slope="0.00"/>
        <vehicle id="background.1" x="34.56" y="-1.60" angle="90.00" type="human" speed="4.09" pos="34.56" lane="e0_0" slope="0.00"/>
        <vehicle id="ego" x="46.53" y="-1.60" angle="90.00" type="ego_type" speed="0.71" pos="46.53" lane="e0_0" slope="0.00"/>
    </timestep>
    <timestep time="42.00">
        <vehicle id="background.0" x="330.40" y="-1.60" angle="90.00" type="human" speed="11.09" pos="30.40" lane="e1_0" slope="0.00"/>
        <vehicle id="background.1" x="36.07" y="-1.60" angle="90.00" type="human" speed="3.01" pos="36.07" lane="e0_0" slope="0.00"/>
        <vehicle id="ego" x="46.88" y="-1.60" angle="90.00" type="ego_type" speed="0.71" pos="46.88" lane="e0_0" slope="0.00"/>
    </timestep>
    <timestep time="42.50">
        <vehicle id="background.0" x="335.79" y="-1.60" angle="90.00" type="human" speed="10.79" pos="35.79" lane="e1_0" slope="0.00"/>
        <vehicle id="background.1" x="37.20" y="-1.60" angle="90.00" type="human" speed="2.27" pos="37.20" lane="e0_0" slope="0.00"/>
        <vehicle id="ego" x="46.99" y="-1.60" angle="90.00" type="ego_type" speed="0.21" pos="46.99" lane="e0_0" slope="0.00"/>
    </timestep>
    <timestep time="43.00">
        <vehicle id="background.0" x="341.26" y="-1.60" angle="90.00" type="human" speed="10.94" pos="41.26" lane="e1_0" slope="0.00"/>
        <vehicle id="background.1" x="38.02" y="-1.60" angle="90.00" type="human" speed="1.62" pos="38.02" lane="e0_0" slope="0.00"/>
        <vehicle id="ego" x="47.47" y="-1.60" angle="90.00" type="ego_type" speed="0.96" pos="47.47" lane="e0_0" slope="0.00"/>
    </timestep>
    <timestep time="43.50">
        <vehicle id="background.0" x="346.75" y="-1.60" angle="90.00" type="human" speed="10.99" pos="46.75" lane="e1_0" slope="0.00"/>
        <vehicle id="background.1" x="38.82" y="-1.60" angle="90.00" type="human" speed="1.61" pos="38.82" lane="e0_0" slope="0.00"/>
        <vehicle id="ego" x="47.70" y="-1.60" angle="90.00" type="ego_type" speed="0.46" pos="47.70" lane="e0_0" slope="0.00"/>
    </timestep>
    <timestep time="44.00">
        <vehicle id="background.1" x="39.35" y="-1.60" angle="90.00" type="human" speed="1.06" pos="39.35" lane="e0_0" slope="0.00"/>
        <vehicle id="ego" x="47.93" y="-1.60" angle="90.00" type="ego_type" speed="0.46" pos="47.93" lane="e0_0" slope="0.00"/>
    </timestep>
    <timestep time="44.50">
        <vehicle id="background.1" x="39.78" y="-1.60" angle="90.00" type="human" speed="0.87" pos="39.78" lane="e0_0" slope="0.00"/>
        <vehicle id="ego" x="48.04" y="-1.60" angle="90.00" type="ego_type" speed="0.21" pos="48.04" lane="e0_0" slope="0.00"/>
    </timestep>
    <timestep time="45.00">
        <vehicle id="background.1" x="40.09" y="-1.60" angle="90.00" type="human" speed="0.61" pos="40.09" lane="e0_0" slope="0.00"/>
        <vehicle id="ego" x="48.39" y="-1.60" angle="90.00" type="ego_type" speed="0.71" pos="48.39" lane="e0_0" slope="0.00"/>
    </timestep>
    <timestep time="45.50">
        <vehicle id="background.1" x="40.48" y="-1.60" angle="90.00" type="human" speed="0.77" pos="40.48" lane="e0_0" slope="0.00"/>
        <vehicle id="background.2" x="5.10" y="-1.60" angle="90.00" type="human" speed="10.86" pos="5.10" lane="e0_0" slope="0.00"/>
        <vehicle id="ego" x="48.62" y="-1.60" angle="90.00" type="ego_type" speed="0.46" pos="48.62" lane="e0_0" slope="0.00"/>
    </timestep>
    <timestep time="46.00">
        <vehicle id="background.1" x="40.73" y="-1.60" angle="90.00" type="human" speed="0.50" pos="40.73" lane="e0_0" slope="0.00"/>
        <vehicle id="background.2" x="10.48" y="-1.60" angle="90.00" type="human" speed="10.75" pos="10.48" lane="e0_0" slope="0.00"/>
        <vehicle id="ego" x="49.23" y="-1.60" angle="90.00" type="ego_type" speed="1.21" pos="49.23" lane="e0_0" slope="0.00"/>
    </timestep>
    <timestep time="46.50">
        <vehicle id="background.1" x="41.14" y="-1.60" angle="90.00" type="human" speed="0.83" pos="41.14" lane="e0_0" slope="0.00"/>
        <vehicle id="background.2" x="15.21" y="-1.60" angle="90.00" type="human" speed="9.48" pos="15.21" lane="e0_0" slope="0.00"/>
        <vehicle id="ego" x="49.58" y="-1.60" angle="90.00" type="ego_type" speed="0.71" pos="49.58" lane="e0_0" slope="0.00"/>
    </timestep>
    <timestep time="47.00">
        <vehicle id="background.1" x="41.54" y="-1.60" angle="90.00" type="human" speed="0.80" pos="41.54" lane="e0_0" slope="0.00"/>
        <vehicle id="background.2" x="19.39" y="-1.60" angle="90.00" type="human" speed="8.34" pos="19.39" lane="e0_0" slope="0.00"/>
        <vehicle id="ego" x="49.94" y="-1.60" angle="90.00" type="ego_type" speed="0.71" pos="49.94" lane="e0_0" slope="0.00"/>
    </timestep>
    <timestep time="47.50">
        <vehicle id="background.1" x="41.89" y="-1.60" angle="90.00" type="human" speed="0.70" pos="41.89" lane="e0_0" slope="0.00"/>
        <vehicle id="background.2" x="23.01" y="-1.60" angle="90.00" type="human" speed="7.26" pos="23.01" lane="e0_0" slope="0.00"/>
        <vehicle id="ego" x="50.05" y="-1.60" angle="90.00" type="ego_type" speed="0.21" pos="50.05" lane="e0_0" slope="0.00"/>
    </timestep>
    <timestep time="48.00">
        <vehicle id="background.1" x="42.15" y="-1.60" angle="90.00" type="human" speed="0.52" pos="42.15" lane="e0_0" slope="0.00"/>
        <vehicle id="background.2" x="25.91" y="-1.60" angle="90.00" type="human" speed="5.80" pos="25.91" lane="e0_0" slope="0.00"/>
        <vehicle id="ego" x="50.40" y="-1.60" angle="90.00" type="ego_type" speed="0.71" pos="50.40" lane="e0_0" slope="0.00"/>
    </timestep>
    <timestep time="48.50">
        <vehicle id="background.1" x="42.48" y="-1.60" angle="90.00" type="human" speed="0.66" pos="42.48" lane="e0_0" slope="0.00"/>
        <vehicle id="background.2" x="28.50" y="-1.60" angle="90.00" type="human" speed="5.18" pos="28.50" lane="e0_0" slope="0.00"/>
        <vehicle id="ego" x="51.01" y="-1.60" angle="90.00" type="ego_type" speed="1.21" pos="51.01" lane="e0_0" slope="0.00"/>
    </timestep>
    <timestep time="49.00">
        <vehicle id="background.1" x="42.91" y="-1.60" angle="90.00" type="human" speed="0.86" pos="42.91" lane="e0_0" slope="0.00"/>
        <vehicle id="background.2" x="30.60" y="-1.60" angle="90.00" type="human" speed="4.19" pos="30.60" lane="e0_0" slope="0.00"/>
        <vehicle id="background.3" x="5.10" y="-1.60" angle="90.00" type="human" speed="8.91" pos="5.10" lane="e0_0" slope="0.00"/>
        <vehicle id="ego" x="51.74" y="-1.60" angle="90.00" type="ego_type" speed="1.46" pos="51.74" lane="e0_0" slope="0.00"/>
    </timestep>
    <timestep time="49.50">
        <vehicle id="background.1" x="43.43" y="-1.60" angle="90.00" type="human" speed="1.05" pos="43.43" lane="e0_0" slope="0.00"/>
        <vehicle id="background.2" x="32.34" y="-1.60" angle="90.00" type="human" speed="3.49" pos="32.34" lane="e0_0" slope="0.00"/>
        <vehicle id="background.3" x="9.45" y="-1.60" angle="90.00" type="human" speed="8.70" pos="9.45" lane="e0_0" slope="0.00"/>
        <vehicle id="ego" x="52.60" y="-1.60" angle="90.00" type="ego_type" speed="1.71" pos="52.60" lane="e0_0" slope="0.00"/>
    </timestep>
    <timestep time="50.00">
        <vehicle id="background.1" x="44.26" y="-1.60" angle="90.00" type="human" speed="1.66" pos="44.26" lane="e0_0" slope="0.00"/>
        <vehicle id="background.2" x="33.76" y="-1.60" angle="90.00" type="human" speed="2.83" pos="33.76" lane="e0_0" slope="0.00"/>
        <vehicle id="background.3" x="13.43" y="-1.60" angle="90.00" type="human" speed="7.95" pos="13.43" lane="e0_0" slope="0.00"/>
        <vehicle id="ego" x="53.08" y="-1.60" angle="90.00" type="ego_type" speed="0.96" pos="53.08" lane="e0_0" slope="0.00"/>
    </timestep>
    <timestep time="50.50">
        <vehicle id="background.1" x="44.83" y="-1.60" angle="90.00" type="human" speed="1.14" pos="44.83" lane="e0_0" slope="0.00"/>
        <vehicle id="background.2" x="34.90" y="-1.60" angle="90.00" type="human" speed="2.28" pos="34.90" lane="e0_0" slope="0.00"/>
        <vehicle id="background.3" x="16.84" y="-1.60" angle="90.00" type="human" speed="6.83" pos="16.84" lane="e0_0" slope="0.00"/>
        <vehicle id="ego" x="53.31" y="-1.60" angle="90.00" type="ego_type" speed="0.46" pos="53.31" lane="e0_0" slope="0.00"/>
    </timestep>
    <timestep time="51.00">
        <vehicle id="background.1" x="45.26" y="-1.60" angle="90.00" type="human" speed="0.86" pos="45.26" lane="e0_0" slope="0.00"/>
        <vehicle id="background.2" x="35.81" y="-1.60" angle="90.00" type="human" speed="1.83" pos="35.81" lane="e0_0" slope="0.00"/>
        <vehicle id="background.3" x="19.75" y="-1.60" angle="90.00" type="human" speed="5.82" pos="19.75" lane="e0_0" slope="0.00"/>
        <vehicle id="ego" x="53.41" y="-1.60" angle="90.00" type="ego_type" speed="0.21" pos="53.41" lane="e0_0" slope="0.00"/>
    </timestep>
    <timestep time="51.50">
        <vehicle id="background.1" x="45.53" y="-1.60" angle="90.00" type="human" speed="0.53" pos="45.53" lane="e0_0" slope="0.00"/>
        <vehicle id="background.2" x="36.51" y="-1.60" angle="90.00" type="human" speed="1.38" pos="36.51" lane="e0_0" slope="0.00"/>
        <vehicle id="background.3" x="22.22" y="-1.60" angle="90.00" type="human" speed="4.93" pos="22.22" lane="e0_0" slope="0.00"/>
        <vehicle id="ego" x="53.64" y="-1.60" angle="90.00" type="ego_type" speed="0.46" pos="53.64" lane="e0_0" slope="0.00"/>
    </timestep>
    <timestep time="52.00">
        <vehicle id="background.1" x="45.82" y="-1.60" angle="90.00" type="human" speed="0.59" pos="45.82" lane="e0_0" slope="0.00"/>
        <vehicle id="background.2" x="37.21" y="-1.60" angle="90.00" type="human" speed="1.42" pos="37.21" lane="e0_0" slope="0.00"/>
        <vehicle id="background.3" x="24.41" y="-1.60" angle="90.00" type="human" speed="4.38" pos="24.41" lane="e0_0" slope="0.00"/>
        <vehicle id="ego" x="53.87" y="-1.60" angle="90.00" type="ego_type" speed="0.46" pos="53.87" lane="e0_0" slope="0.00"/>
    </timestep>
    <timestep time="52.50">
        <vehicle id="background.1" x="46.09" y="-1.60" angle="90.00" type="human" speed="0.54" pos="46.09" lane="e0_0" slope="0.00"/>
        <vehicle id="background.2" x="37.63" y="-1.60" angle="90.00" type="human" speed="0.84" pos="37.63" lane="e0_0" slope="0.00"/>
        <vehicle id="background.3" x="26.10" y="-1.60" angle="90.00" type="human" speed="3.38" pos="26.10" lane="e0_0" slope="0.00"/>
        <vehicle id="ego" x="54.36" y="-1.60" angle="90.00" type="ego_type" speed="0.96" pos="54.36" lane="e0_0" slope="0.00"/>
    </timestep>
    <timestep time="53.00">
        <vehicle id="background.1" x="46.42" y="-1.60" angle="90.00" type="human" speed="0.65" pos="46.42" lane="e0_0" slope="0.00"/>
        <vehicle id="background.2" x="38.03" y="-1.60" angle="90.00" type="human" speed="0.79" pos="38.03" lane="e0_0" slope="0.00"/>
        <vehicle id="background.3" x="27.52" y="-1.60" angle="90.00" type="human" speed="2.84" pos="27.52" lane="e0_0" slope="0.00"/>
        <vehicle id="background.4" x="5.10" y="-1.60" angle="90.00" type="human" speed="7.67" pos="5.10" lane="e0_0" slope="0.00"/>
        <vehicle id="ego" x="54.71" y="-1.60" angle="90.00" type="ego_type" speed="0.71" pos="54.71" lane="e0_0" slope="0.00"/>
    </timestep>
    <timestep time="53.50">
        <vehicle id="background.1" x="46.80" y="-1.60" angle="90.00" type="human" speed="0.77" pos="46.80" lane="e0_0" slope="0.00"/>
        <vehicle id="background.2" x="38.37" y="-1.60" angle="90.00" type="human" speed="0.68" pos="38.37" lane="e0_0" slope="0.00"/>
        <vehicle id="background.3" x="28.59" y="-1.60" angle="90.00" type="human" speed="2.15" pos="28.59" lane="e0_0" slope="0.00"/>
        <vehicle id="background.4" x="8.72" y="-1.60" angle="90.00" type="human" speed="7.24" pos="8.72" lane="e0_0" slope="0.00"/>
        <vehicle id="ego" x="55.44" y="-1.60" angle="90.00" type="ego_type" speed="1.46" pos="55.44" lane="e0_0" slope="0.00"/>
    </timestep>
    <timestep time="54.00">
        <vehicle id="background.1" x="47.31" y="-1.60" angle="90.00" type="human" speed="1.02" pos="47.31" lane="e0_0" slope="0.00"/>
        <vehicle id="background.2" x="38.78" y="-1.60" angle="90.00" type="human" speed="0.83" pos="38.78" lane="e0_0" slope="0.00"/>
        <vehicle id="background.3" x="29.60" y="-1.60" angle="90.00" type="human" speed="2.01" pos="29.60" lane="e0_0" slope="0.00"/>
        <vehicle id="background.4" x="11.88" y="-1.60" angle="90.00" type="human" speed="6.31" pos="11.88" lane="e0_0" slope="0.00"/>
        <vehicle id="ego" x="56.05" y="-1.60" angle="90.00" type="ego_type" speed="1.21" pos="56.05" lane="e0_0" slope="0.00"/>
    </timestep>
    <timestep time="54.50">
        <vehicle id="background.1" x="47.90" y="-1.60" angle="90.00" type="human" speed="1.17" pos="47.90" lane="e0_0" slope="0.00"/>
        <vehicle id="background.2" x="39.30" y="-1.60" angle="90.00" type="human" speed="1.02" pos="39.30" lane="e0_0" slope="0.00"/>
        <vehicle id="background.3" x="30.29" y="-1.60" angle="90.00" type="human" speed="1.38" pos="30.29" lane="e0_0" slope="0.00"/>
        <vehicle id="background.4" x="14.72" y="-1.60" angle="90.00" type="human" speed="5.70" pos="14.72" lane="e0_0" slope="0.00"/>
        <vehicle id="ego" x="56.90" y="-1.60" angle="90.00" type="ego_type" speed="1.71" pos="56.90" lane="e0_0" slope="0.00"/>
    </timestep>
    <timestep time="55.00">
        <vehicle id="background.1" x="48.61" y="-1.60" angle="90.00" type="human" speed="1.42" pos="48.61" lane="e0_0" slope="0.00"/>
        <vehicle id="background.2" x="39.81" y="-1.60" angle="90.00" type="human" speed="1.04" pos="39.81" lane="e0_0" slope="0.00"/>
        <vehicle id="background.3" x="31.02" y="-1.60" angle="90.00" type="human" speed="1.46" pos="31.02" lane="e0_0" slope="0.00"/>
        <vehicle id="background.4" x="17.10" y="-1.60" angle="90.00" type="human" speed="4.75" pos="17.10" lane="e0_0" slope="0.00"/>
        <vehicle id="ego" x="57.39" y="-1.60" angle="90.00" type="ego_type" speed="0.96" pos="57.39" lane="e0_0" slope="0.00"/>
    </timestep>
    <timestep time="55.50">