<?xml version="1.0" encoding="UTF-8"?>

<!-- generated on 2026-05-13 21:30:42 by Eclipse SUMO sumo Version 1.24.0
<sumoConfiguration xmlns:xsi="http://www.w3.org/2001/XMLSchema-instance" xsi:noNamespaceSchemaLocation="http://sumo.dlr.de/xsd/sumoConfiguration.xsd">

    <input>
        <net-file value="scenarios/simple_arterial/simple_arterial.net.xml"/>
        <route-files value="scenarios/simple_arterial/simple_arterial.rou.xml"/>
        <additional-files value="scenarios/simple_arterial/simple_arterial.tls.xml"/>
    </input>

    <output>
        <fcd-output value="runs/fcd_rlhf/episode_00012_seed_212.fcd.xml"/>
    </output>

    <time>
        <begin value="0"/>
        <end value="900"/>
        <step-length value="0.5"/>
    </time>

    <report>
        <no-warnings value="true"/>
    </report>

    <traci_server>
        <remote-port value="22810"/>
    </traci_server>

    <random_number>
        <seed value="212"/>
    </random_number>

</sumoConfiguration>
-->

<fcd-export xmlns:xsi="http://www.w3.org/2001/XMLSchema-instance" xsi:noNamespaceSchemaLocation="http://sumo.dlr.de/xsd/fcd_file.xsd">
    <timestep time="0.00"/>
    <timestep time="0.50"/>
    <timestep time="1.00"/>
    <timestep time="1.50"/>
    <timestep time="2.00"/>
    <timestep time="2.50"/>
    <timestep time="3.00">
        <vehicle id="background.0" x="5.10" y="-1.60" angle="90.00" type="human" speed="13.20" pos="5.10" lane="e0_0" slope="0.00"/>
    </timestep>
    <timestep time="3.50">
        <vehicle id="background.0" x="11.65" y="-1.60" angle="90.00" type="human" speed="13.09" pos="11.65" lane="e0_0" slope="0.00"/>
    </timestep>
    <timestep time="4.00">
        <vehicle id="background.0" x="18.10" y="-1.60" angle="90.00" type="human" speed="12.91" pos="18.10" lane="e0_0" slope="0.00"/>
    </timestep>
    <timestep time="4.50">
        <vehicle id="background.0" x="24.47" y="-1.60" angle="90.00" type="human" speed="12.74" pos="24.47" lane="e0_0" slope="0.00"/>
    </timestep>
    <timestep time="5.00">
        <vehicle id="background.0" x="30.94" y="-1.60" angle="90.00" type="human" speed="12.93" pos="30.94" lane="e0_0" slope="0.00"/>
    </timestep>
    <timestep time="5.50">
        <vehicle id="background.0" x="37.30" y="-1.60" angle="90.00" type="human" speed="12.73" pos="37.30" lane="e0_0" slope="0.00"/>
    </timestep>
    <timestep time="6.00">
        <vehicle id="background.0" x="43.87" y="-1.60" angle="90.00" type="human" speed="13.14" pos="43.87" lane="e0_0" slope="0.00"/>
    </timestep>
    <timestep time="6.50">
        <vehicle id="background.0" x="50.32" y="-1.60" angle="90.00" type="human" speed="12.90" pos="50.32" lane="e0_0" slope="0.00"/>
    </timestep>
    <timestep time="7.00">
        <vehicle id="background.0" x="56.85" y="-1.60" angle="90.00" type="human" speed="13.06" pos="56.85" lane="e0_0" slope="0.00"/>
    </timestep>
    <timestep time="7.50">
        <vehicle id="background.0" x="63.26" y="-1.60" angle="90.00" type="human" speed="12.82" pos="63.26" lane="e0_0" slope="0.00"/>
    </timestep>
    <timestep time="8.00">
        <vehicle id="background.0" x="69.63" y="-1.60" angle="90.00" type="human" speed="12.74" pos="69.63" lane="e0_0" slope="0.00"/>
    </timestep>
    <timestep time="8.50">
        <vehicle id="background.0" x="76.05" y="-1.60" angle="90.00" type="human" speed="12.84" pos="76.05" lane="e0_0" slope="0.00"/>
    </timestep>
    <timestep time="9.00">
        <vehicle id="background.0" x="82.53" y="-1.60" angle="90.00" type="human" speed="12.96" pos="82.53" lane="e0_0" slope="0.00"/>
    </timestep>
    <timestep time="9.50">
        <vehicle id="background.0" x="89.04" y="-1.60" angle="90.00" type="human" speed="13.02" pos="89.04" lane="e0_0" slope="0.00"/>
    </timestep>
    <timestep time="10.00">
        <vehicle id="background.0" x="95.42" y="-1.60" angle="90.00" type="human" speed="12.77" pos="95.42" lane="e0_0" slope="0.00"/>
    </timestep>
    <timestep time="10.50">
        <vehicle id="background.0" x="101.99" y="-1.60" angle="90.00" type="human" speed="13.13" pos="101.99" lane="e0_0" slope="0.00"/>
    </timestep>
    <timestep time="11.00">
        <vehicle id="background.0" x="108.47" y="-1.60" angle="90.00" type="human" speed="12.97" pos="108.47" lane="e0_0" slope="0.00"/>
    </timestep>
    <timestep time="11.50">
        <vehicle id="background.0" x="114.99" y="-1.60" angle="90.00" type="human" speed="13.03" pos="114.99" lane="e0_0" slope="0.00"/>
    </timestep>
    <timestep time="12.00">
        <vehicle id="background.0" x="121.37" y="-1.60" angle="90.00" type="human" speed="12.77" pos="121.37" lane="e0_0" slope="0.00"/>
    </timestep>
    <timestep time="12.50">
        <vehicle id="background.0" x="127.97" y="-1.60" angle="90.00" type="human" speed="13.20" pos="127.97" lane="e0_0" slope="0.00"/>
    </timestep>
    <timestep time="13.00">
        <vehicle id="background.0" x="134.37" y="-1.60" angle="90.00" type="human" speed="12.79" pos="134.37" lane="e0_0" slope="0.00"/>
    </timestep>
    <timestep time="13.50">
        <vehicle id="background.0" x="140.89" y="-1.60" angle="90.00" type="human" speed="13.04" pos="140.89" lane="e0_0" slope="0.00"/>
    </timestep>
    <timestep time="14.00">
        <vehicle id="background.0" x="147.35" y="-1.60" angle="90.00" type="human" speed="12.93" pos="147.35" lane="e0_0" slope="0.00"/>
    </timestep>
    <timestep time="14.50">
        <vehicle id="background.0" x="153.93" y="-1.60" angle="90.00" type="human" speed="13.16" pos="153.93" lane="e0_0" slope="0.00"/>
    </timestep>
    <timestep time="15.00">
        <vehicle id="background.0" x="160.49" y="-1.60" angle="90.00" type="human" speed="13.11" pos="160.49" lane="e0_0" slope="0.00"/>
    </timestep>
    <timestep time="15.50">
        <vehicle id="background.0" x="167.03" y="-1.60" angle="90.00" type="human" speed="13.09" pos="167.03" lane="e0_0" slope="0.00"/>
    </timestep>
    <timestep time="16.00">
        <vehicle id="background.0" x="173.58" y="-1.60" angle="90.00" type="human" speed="13.09" pos="173.58" lane="e0_0" slope="0.00"/>
    </timestep>
    <timestep time="16.50">
        <vehicle id="background.0" x="179.95" y="-1.60" angle="90.00" type="human" speed="12.74" pos="179.95" lane="e0_0" slope="0.00"/>
    </timestep>
    <timestep time="17.00">
        <vehicle id="background.0" x="186.38" y="-1.60" angle="90.00" type="human" speed="12.86" pos="186.38" lane="e0_0" slope="0.00"/>
        <vehicle id="background.1" x="5.10" y="-1.60" angle="90.00" type="human" speed="13.89" pos="5.10" lane="e0_0" slope="0.00"/>
    </timestep>
    <timestep time="17.50">
        <vehicle id="background.0" x="192.77" y="-1.60" angle="90.00" type="human" speed="12.78" pos="192.77" lane="e0_0" slope="0.00"/>
        <vehicle id="background.1" x="11.90" y="-1.60" angle="90.00" type="human" speed="13.59" pos="11.90" lane="e0_0" slope="0.00"/>
    </timestep>
    <timestep time="18.00">
        <vehicle id="background.0" x="199.28" y="-1.60" angle="90.00" type="human" speed="13.03" pos="199.28" lane="e0_0" slope="0.00"/>
        <vehicle id="background.1" x="18.76" y="-1.60" angle="90.00" type="human" speed="13.72" pos="18.76" lane="e0_0" slope="0.00"/>
    </timestep>
    <timestep time="18.50">
        <vehicle id="background.0" x="205.86" y="-1.60" angle="90.00" type="human" speed="13.16" pos="205.86" lane="e0_0" slope="0.00"/>
        <vehicle id="background.1" x="25.52" y="-1.60" angle="90.00" type="human" speed="13.52" pos="25.52" lane="e0_0" slope="0.00"/>
    </timestep>
    <timestep time="19.00">
        <vehicle id="background.0" x="212.37" y="-1.60" angle="90.00" type="human" speed="13.01" pos="212.37" lane="e0_0" slope="0.00"/>
        <vehicle id="background.1" x="32.34" y="-1.60" angle="90.00" type="human" speed="13.65" pos="32.34" lane="e0_0" slope="0.00"/>
    </timestep>
    <timestep time="19.50">
        <vehicle id="background.0" x="218.93" y="-1.60" angle="90.00" type="human" speed="13.13" pos="218.93" lane="e0_0" slope="0.00"/>
        <vehicle id="background.1" x="39.13" y="-1.60" angle="90.00" type="human" speed="13.57" pos="39.13" lane="e0_0" slope="0.00"/>
    </timestep>
    <timestep time="20.00">
        <vehicle id="background.0" x="225.51" y="-1.60" angle="90.00" type="human" speed="13.16" pos="225.51" lane="e0_0" slope="0.00"/>
        <vehicle id="background.1" x="45.90" y="-1.60" angle="90.00" type="human" speed="13.53" pos="45.90" lane="e0_0" slope="0.00"/>
    </timestep>
    <timestep time="20.50">
        <vehicle id="background.0" x="232.09" y="-1.60" angle="90.00" type="human" speed="13.17" pos="232.09" lane="e0_0" slope="0.00"/>
        <vehicle id="background.1" x="52.79" y="-1.60" angle="90.00" type="human" speed="13.78" pos="52.79" lane="e0_0" slope="0.00"/>
    </timestep>
    <timestep time="21.00">
        <vehicle id="background.0" x="238.63" y="-1.60" angle="90.00" type="human" speed="13.07" pos="238.63" lane="e0_0" slope="0.00"/>
        <vehicle id="background.1" x="59.60" y="-1.60" angle="90.00" type="human" speed="13.63" pos="59.60" lane="e0_0" slope="0.00"/>
    </timestep>
    <timestep time="21.50">
        <vehicle id="background.0" x="245.06" y="-1.60" angle="90.00" type="human" speed="12.85" pos="245.06" lane="e0_0" slope="0.00"/>
        <vehicle id="background.1" x="66.43" y="-1.60" angle="90.00" type="human" speed="13.64" pos="66.43" lane="e0_0" slope="0.00"/>
    </timestep>
    <timestep time="22.00">
        <vehicle id="background.0" x="251.50" y="-1.60" angle="90.00" type="human" speed="12.89" pos="251.50" lane="e0_0" slope="0.00"/>
        <vehicle id="background.1" x="73.36" y="-1.60" angle="90.00" type="human" speed="13.87" pos="73.36" lane="e0_0" slope="0.00"/>
    </timestep>
    <timestep time="22.50">
        <vehicle id="background.0" x="258.00" y="-1.60" angle="90.00" type="human" speed="12.99" pos="258.00" lane="e0_0" slope="0.00"/>
        <vehicle id="background.1" x="80.23" y="-1.60" angle="90.00" type="human" speed="13.75" pos="80.23" lane="e0_0" slope="0.00"/>
    </timestep>
    <timestep time="23.00">
        <vehicle id="background.0" x="264.43" y="-1.60" angle="90.00" type="human" speed="12.87" pos="264.43" lane="e0_0" slope="0.00"/>
        <vehicle id="background.1" x="87.16" y="-1.60" angle="90.00" type="human" speed="13.84" pos="87.16" lane="e0_0" slope="0.00"/>
    </timestep>
    <timestep time="23.50">
        <vehicle id="background.0" x="271.02" y="-1.60" angle="90.00" type="human" speed="13.18" pos="271.02" lane="e0_0" slope="0.00"/>
        <vehicle id="background.1" x="93.93" y="-1.60" angle="90.00" type="human" speed="13.55" pos="93.93" lane="e0_0" slope="0.00"/>
    </timestep>
    <timestep time="24.00">
        <vehicle id="background.0" x="277.37" y="-1.60" angle="90.00" type="human" speed="12.70" pos="277.37" lane="e0_0" slope="0.00"/>
        <vehicle id="background.1" x="100.80" y="-1.60" angle="90.00" type="human" speed="13.73" pos="100.80" lane="e0_0" slope="0.00"/>
    </timestep>
    <timestep time="24.50">
        <vehicle id="background.0" x="283.73" y="-1.60" angle="90.00" type="human" speed="12.72" pos="283.73" lane="e0_0" slope="0.00"/>
        <vehicle id="background.1" x="107.56" y="-1.60" angle="90.00" type="human" speed="13.54" pos="107.56" lane="e0_0" slope="0.00"/>
    </timestep>
    <timestep time="25.00">
        <vehicle id="background.0" x="290.27" y="-1.60" angle="90.00" type="human" speed="13.08" pos="290.27" lane="e0_0" slope="0.00"/>
        <vehicle id="background.1" x="114.35" y="-1.60" angle="90.00" type="human" speed="13.57" pos="114.35" lane="e0_0" slope="0.00"/>
    </timestep>
    <timestep time="25.50">
        <vehicle id="background.0" x="296.65" y="-1.60" angle="90.00" type="human" speed="12.76" pos="296.65" lane="e0_0" slope="0.00"/>
        <vehicle id="background.1" x="121.13" y="-1.60" angle="90.00" type="human" speed="13.55" pos="121.13" lane="e0_0" slope="0.00"/>
    </timestep>
    <timestep time="26.00">
        <vehicle id="background.0" x="302.98" y="-1.60" angle="90.00" type="human" speed="12.85" pos="2.98" lane="e1_0" slope="0.00"/>
        <vehicle id="background.1" x="127.86" y="-1.60" angle="90.00" type="human" speed="13.47" pos="127.86" lane="e0_0" slope="0.00"/>
    </timestep>
    <timestep time="26.50">
        <vehicle id="background.0" x="309.57" y="-1.60" angle="90.00" type="human" speed="13.18" pos="9.57" lane="e1_0" slope="0.00"/>
        <vehicle id="background.1" x="134.73" y="-1.60" angle="90.00" type="human" speed="13.74" pos="134.73" lane="e0_0" slope="0.00"/>
    </timestep>
    <timestep time="27.00">
        <vehicle id="background.0" x="315.95" y="-1.60" angle="90.00" type="human" speed="12.77" pos="15.95" lane="e1_0" slope="0.00"/>
        <vehicle id="background.1" x="141.46" y="-1.60" angle="90.00" type="human" speed="13.45" pos="141.46" lane="e0_0" slope="0.00"/>
    </timestep>
    <timestep time="27.50">
        <vehicle id="background.0" x="322.46" y="-1.60" angle="90.00" type="human" speed="13.02" pos="22.46" lane="e1_0" slope="0.00"/>
        <vehicle id="background.1" x="148.18" y="-1.60" angle="90.00" type="human" speed="13.44" pos="148.18" lane="e0_0" slope="0.00"/>
        <vehicle id="background.2" x="5.10" y="-1.60" angle="90.00" type="human" speed="13.51" pos="5.10" lane="e0_0" slope="0.00"/>
    </timestep>
    <timestep time="28.00">
        <vehicle id="background.0" x="328.85" y="-1.60" angle="90.00" type="human" speed="12.78" pos="28.85" lane="e1_0" slope="0.00"/>
        <vehicle id="background.1" x="154.90" y="-1.60" angle="90.00" type="human" speed="13.45" pos="154.90" lane="e0_0" slope="0.00"/>
        <vehicle id="background.2" x="11.70" y="-1.60" angle="90.00" type="human" speed="13.20" pos="11.70" lane="e0_0" slope="0.00"/>
    </timestep>
    <timestep time="28.50">
        <vehicle id="background.0" x="335.23" y="-1.60" angle="90.00" type="human" speed="12.75" pos="35.23" lane="e1_0" slope="0.00"/>
        <vehicle id="background.1" x="161.71" y="-1.60" angle="90.00" type="human" speed="13.62" pos="161.71" lane="e0_0" slope="0.00"/>
        <vehicle id="background.2" x="18.41" y="-1.60" angle="90.00" type="human" speed="13.41" pos="18.41" lane="e0_0" slope="0.00"/>
    </timestep>
    <timestep time="29.00">
        <vehicle id="background.0" x="341.76" y="-1.60" angle="90.00" type="human" speed="13.07" pos="41.76" lane="e1_0" slope="0.00"/>
        <vehicle id="background.1" x="168.55" y="-1.60" angle="90.00" type="human" speed="13.67" pos="168.55" lane="e0_0" slope="0.00"/>
        <vehicle id="background.2" x="25.14" y="-1.60" angle="90.00" type="human" speed="13.46" pos="25.14" lane="e0_0" slope="0.00"/>
    </timestep>
    <timestep time="29.50">
        <vehicle id="background.0" x="348.26" y="-1.60" angle="90.00" type="human" speed="13.00" pos="48.26" lane="e1_0" slope="0.00"/>
        <vehicle id="background.1" x="175.44" y="-1.60" angle="90.00" type="human" speed="13.79" pos="175.44" lane="e0_0" slope="0.00"/>
        <vehicle id="background.2" x="31.69" y="-1.60" angle="90.00" type="human" speed="13.10" pos="31.69" lane="e0_0" slope="0.00"/>
    </timestep>
    <timestep time="30.00">
        <vehicle id="background.1" x="182.35" y="-1.60" angle="90.00" type="human" speed="13.81" pos="182.35" lane="e0_0" slope="0.00"/>
        <vehicle id="background.2" x="38.29" y="-1.60" angle="90.00" type="human" speed="13.20" pos="38.29" lane="e0_0" slope="0.00"/>
    </timestep>
    <timestep time="30.50">
        <vehicle id="background.1" x="189.12" y="-1.60" angle="90.00" type="human" speed="13.55" pos="189.12" lane="e0_0" slope="0.00"/>
        <vehicle id="background.2" x="45.02" y="-1.60" angle="90.00" type="human" speed="13.47" pos="45.02" lane="e0_0" slope="0.00"/>
    </timestep>
    <timestep time="31.00">
        <vehicle id="background.1" x="195.82" y="-1.60" angle="90.00" type="human" speed="13.39" pos="195.82" lane="e0_0" slope="0.00"/>
        <vehicle id="background.2" x="51.70" y="-1.60" angle="90.00" type="human" speed="13.35" pos="51.70" lane="e0_0" slope="0.00"/>
    </timestep>
    <timestep time="31.50">
        <vehicle id="background.1" x="202.55" y="-1.60" angle="90.00" type="human" speed="13.47" pos="202.55" lane="e0_0" slope="0.00"/>
        <vehicle id="background.2" x="58.36" y="-1.60" angle="90.00" type="human" speed="13.32" pos="58.36" lane="e0_0" slope="0.00"/>
    </timestep>
    <timestep time="32.00">
        <vehicle id="background.1" x="209.40" y="-1.60" angle="90.00" type="human" speed="13.70" pos="209.40" lane="e0_0" slope="0.00"/>
        <vehicle id="background.2" x="65.10" y="-1.60" angle="90.00" type="human" speed="13.48" pos="65.10" lane="e0_0" slope="0.00"/>
    </timestep>
    <timestep time="32.50">
        <vehicle id="background.1" x="216.20" y="-1.60" angle="90.00" type="human" speed="13.60" pos="216.20" lane="e0_0" slope="0.00"/>
        <vehicle id="background.2" x="71.76" y="-1.60" angle="90.00" type="human" speed="13.33" pos="71.76" lane="e0_0" slope="0.00"/>
    </timestep>
    <timestep time="33.00">
        <vehicle id="background.1" x="222.99" y="-1.60" angle="90.00" type="human" speed="13.58" pos="222.99" lane="e0_0" slope="0.00"/>
        <vehicle id="background.2" x="78.31" y="-1.60" angle="90.00" type="human" speed="13.10" pos="78.31" lane="e0_0" slope="0.00"/>
    </timestep>
    <timestep time="33.50">
        <vehicle id="background.1" x="229.86" y="-1.60" angle="90.00" type="human" speed="13.74" pos="229.86" lane="e0_0" slope="0.00"/>
        <vehicle id="background.2" x="85.02" y="-1.60" angle="90.00" type="human" speed="13.43" pos="85.02" lane="e0_0" slope="0.00"/>
    </timestep>
    <timestep time="34.00">
        <vehicle id="background.1" x="236.59" y="-1.60" angle="90.00" type="human" speed="13.46" pos="236.59" lane="e0_0" slope="0.00"/>
        <vehicle id="background.2" x="91.57" y="-1.60" angle="90.00" type="human" speed="13.10" pos="91.57" lane="e0_0" slope="0.00"/>
    </timestep>
    <timestep time="34.50">
        <vehicle id="background.1" x="243.31" y="-1.60" angle="90.00" type="human" speed="13.44" pos="243.31" lane="e0_0" slope="0.00"/>
        <vehicle id="background.2" x="98.29" y="-1.60" angle="90.00" type="human" speed="13.44" pos="98.29" lane="e0_0" slope="0.00"/>
    </timestep>
    <timestep time="35.00">
        <vehicle id="background.1" x="250.04" y="-1.60" angle="90.00" type="human" speed="13.47" pos="250.04" lane="e0_0" slope="0.00"/>
        <vehicle id="background.2" x="104.81" y="-1.60" angle="90.00" type="human" speed="13.03" pos="104.81" lane="e0_0" slope="0.00"/>
        <vehicle id="background.3" x="5.10" y="-1.60" angle="90.00" type="human" speed="12.79" pos="5.10" lane="e0_0" slope="0.00"/>
    </timestep>
    <timestep time="35.50">
        <vehicle id="background.1" x="256.80" y="-1.60" angle="90.00" type="human" speed="13.52" pos="256.80" lane="e0_0" slope="0.00"/>
        <vehicle id="background.2" x="111.39" y="-1.60" angle="90.00" type="human" speed="13.17" pos="111.39" lane="e0_0" slope="0.00"/>
        <vehicle id="background.3" x="11.25" y="-1.60" angle="90.00" type="human" speed="12.30" pos="11.25" lane="e0_0" slope="0.00"/>
    </timestep>
    <timestep time="36.00">
        <vehicle id="background.1" x="263.53" y="-1.60" angle="90.00" type="human" speed="13.46" pos="263.53" lane="e0_0" slope="0.00"/>
        <vehicle id="background.2" x="117.99" y="-1.60" angle="90.00" type="human" speed="13.19" pos="117.99" lane="e0_0" slope="0.00"/>
        <vehicle id="background.3" x="17.56" y="-1.60" angle="90.00" type="human" speed="12.62" pos="17.56" lane="e0_0" slope="0.00"/>
    </timestep>
    <timestep time="36.50">
        <vehicle id="background.1" x="270.30" y="-1.60" angle="90.00" type="human" speed="13.53" pos="270.30" lane="e0_0" slope="0.00"/>
        <vehicle id="background.2" x="124.74" y="-1.60" angle="90.00" type="human" speed="13.51" pos="124.74" lane="e0_0" slope="0.00"/>
        <vehicle id="background.3" x="23.89" y="-1.60" angle="90.00" type="human" speed="12.65" pos="23.89" lane="e0_0" slope="0.00"/>
    </timestep>
    <timestep time="37.00">
        <vehicle id="background.1" x="277.02" y="-1.60" angle="90.00" type="human" speed="13.45" pos="277.02" lane="e0_0" slope="0.00"/>
        <vehicle id="background.2" x="131.28" y="-1.60" angle="90.00" type="human" speed="13.08" pos="131.28" lane="e0_0" slope="0.00"/>
        <vehicle id="background.3" x="30.19" y="-1.60" angle="90.00" type="human" speed="12.61" pos="30.19" lane="e0_0" slope="0.00"/>
    </timestep>
    <timestep time="37.50">
        <vehicle id="background.1" x="283.88" y="-1.60" angle="90.00" type="human" speed="13.73" pos="283.88" lane="e0_0" slope="0.00"/>
        <vehicle id="background.2" x="137.81" y="-1.60" angle="90.00" type="human" speed="13.06" pos="137.81" lane="e0_0" slope="0.00"/>
        <vehicle id="background.3" x="36.58" y="-1.60" angle="90.00" type="human" speed="12.78" pos="36.58" lane="e0_0" slope="0.00"/>
    </timestep>
    <timestep time="38.00">
        <vehicle id="background.1" x="290.69" y="-1.60" angle="90.00" type="human" speed="13.62" pos="290.69" lane="e0_0" slope="0.00"/>
        <vehicle id="background.2" x="144.37" y="-1.60" angle="90.00" type="human" speed="13.11" pos="144.37" lane="e0_0" slope="0.00"/>
        <vehicle id="background.3" x="42.75" y="-1.60" angle="90.00" type="human" speed="12.33" pos="42.75" lane="e0_0" slope="0.00"/>
    </timestep>
    <timestep time="38.50">
        <vehicle id="background.1" x="297.40" y="-1.60" angle="90.00" type="human" speed="13.41" pos="297.40" lane="e0_0" slope="0.00"/>
        <vehicle id="background.2" x="150.95" y="-1.60" angle="90.00" type="human" speed="13.16" pos="150.95" lane="e0_0" slope="0.00"/>
        <vehicle id="background.3" x="49.01" y="-1.60" angle="90.00" type="human" speed="12.52" pos="49.01" lane="e0_0" slope="0.00"/>
    </timestep>
    <timestep time="39.00">
        <vehicle id="background.1" x="304.03" y="-1.60" angle="90.00" type="human" speed="13.47" pos="4.03" lane="e1_0" slope="0.00"/>
        <vehicle id="background.2" x="157.61" y="-1.60" angle="90.00" type="human" speed="13.33" pos="157.61" lane="e0_0" slope="0.00"/>
        <vehicle id="background.3" x="55.20" y="-1.60" angle="90.00" type="human" speed="12.39" pos="55.20" lane="e0_0" slope="0.00"/>
    </timestep>
    <timestep time="39.50">
        <vehicle id="background.1" x="310.91" y="-1.60" angle="90.00" type="human" speed="13.76" pos="10.91" lane="e1_0" slope="0.00"/>
        <vehicle id="background.2" x="164.20" y="-1.60" angle="90.00" type="human" speed="13.17" pos="164.20" lane="e0_0" slope="0.00"/>
        <vehicle id="background.3" x="61.54" y="-1.60" angle="90.00" type="human" speed="12.67" pos="61.54" lane="e0_0" slope="0.00"/>
    </timestep>
    <timestep time="40.00">
        <vehicle id="background.1" x="317.71" y="-1.60" angle="90.00" type="human" speed="13.59" pos="17.71" lane="e1_0" slope="0.00"/>
        <vehicle id="background.2" x="170.79" y="-1.60" angle="90.00" type="human" speed="13.19" pos="170.79" lane="e0_0" slope="0.00"/>
        <vehicle id="background.3" x="67.82" y="-1.60" angle="90.00" type="human" speed="12.56" pos="67.82" lane="e0_0" slope="0.00"/>
    </timestep>
    <timestep time="40.50">
        <vehicle id="background.1" x="324.63" y="-1.60" angle="90.00" type="human" speed="13.84" pos="24.63" lane="e1_0" slope="0.00"/>
        <vehicle id="background.2" x="177.34" y="-1.60" angle="90.00" type="human" speed="13.10" pos="177.34" lane="e0_0" slope="0.00"/>
        <vehicle id="background.3" x="74.14" y="-1.60" angle="90.00" type="human" speed="12.65" pos="74.14" lane="e0_0" slope="0.00"/>
    </timestep>
    <timestep time="41.00">
        <vehicle id="background.1" x="331.45" y="-1.60" angle="90.00" type="human" speed="13.66" pos="31.45" lane="e1_0" slope="0.00"/>
        <vehicle id="background.2" x="184.00" y="-1.60" angle="90.00" type="human" speed="13.31" pos="184.00" lane="e0_0" slope="0.00"/>
        <vehicle id="background.3" x="80.52" y="-1.60" angle="90.00" type="human" speed="12.76" pos="80.52" lane="e0_0" slope="0.00"/>
    </timestep>
    <timestep time="41.50">
        <vehicle id="background.1" x="338.30" y="-1.60" angle="90.00" type="human" speed="13.69" pos="38.30" lane="e1_0" slope="0.00"/>
        <vehicle id="background.2" x="190.62" y="-1.60" angle="90.00" type="human" speed="13.25" pos="190.62" lane="e0_0" slope="0.00"/>
        <vehicle id="background.3" x="86.71" y="-1.60" angle="90.00" type="human" speed="12.37" pos="86.71" lane="e0_0" slope="0.00"/>
    </timestep>
    <timestep time="42.00">
        <vehicle id="background.1" x="345.13" y="-1.60" angle="90.00" type="human" speed="13.67" pos="45.13" lane="e1_0" slope="0.00"/>
        <vehicle id="background.2" x="197.15" y="-1.60" angle="90.00" type="human" speed="13.05" pos="197.15" lane="e0_0" slope="0.00"/>
        <vehicle id="background.3" x="92.88" y="-1.60" angle="90.00" type="human" speed="12.35" pos="92.88" lane="e0_0" slope="0.00"/>
    </timestep>
    <timestep time="42.50">
        <vehicle id="background.2" x="203.70" y="-1.60" angle="90.00" type="human" speed="13.11" pos="203.70" lane="e0_0" slope="0.00"/>
        <vehicle id="background.3" x="99.20" y="-1.60" angle="90.00" type="human" speed="12.63" pos="99.20" lane="e0_0" slope="0.00"/>
    </timestep>
    <timestep time="43.00">
        <vehicle id="background.2" x="210.26" y="-1.60" angle="90.00" type="human" speed="13.11" pos="210.26" lane="e0_0" slope="0.00"/>
        <vehicle id="background.3" x="105.44" y="-1.60" angle="90.00" type="human" speed="12.49" pos="105.44" lane="e0_0" slope="0.00"/>
    </timestep>
    <timestep time="43.50">
        <vehicle id="background.2" x="216.92" y="-1.60" angle="90.00" type="human" speed="13.32" pos="216.92" lane="e0_0" slope="0.00"/>
        <vehicle id="background.3" x="111.76" y="-1.60" angle="90.00" type="human" speed="12.65" pos="111.76" lane="e0_0" slope="0.00"/>
    </timestep>
    <timestep time="44.00">
        <vehicle id="background.2" x="223.51" y="-1.60" angle="90.00" type="human" speed="13.18" pos="223.51" lane="e0_0" slope="0.00"/>
        <vehicle id="background.3" x="118.10" y="-1.60" angle="90.00" type="human" speed="12.67" pos="118.10" lane="e0_0" slope="0.00"/>
    </timestep>
    <timestep time="44.50">
        <vehicle id="background.2" x="230.04" y="-1.60" angle="90.00" type="human" speed="13.07" pos="230.04" lane="e0_0" slope="0.00"/>
        <vehicle id="background.3" x="124.41" y="-1.60" angle="90.00" type="human" speed="12.63" pos="124.41" lane="e0_0" slope="0.00"/>
    </timestep>
    <timestep time="45.00">
        <vehicle id="background.2" x="236.75" y="-1.60" angle="90.00" type="human" speed="13.43" pos="236.75" lane="e0_0" slope="0.00"/>
        <vehicle id="background.3" x="130.80" y="-1.60" angle="90.00" type="human" speed="12.78" pos="130.80" lane="e0_0" slope="0.00"/>
    </timestep>
    <timestep time="45.50">
        <vehicle id="background.2" x="243.37" y="-1.60" angle="90.00" type="human" speed="13.23" pos="243.37" lane="e0_0" slope="0.00"/>
        <vehicle id="background.3" x="137.00" y="-1.60" angle="90.00" type="human" speed="12.40" pos="137.00" lane="e0_0" slope="0.00"/>
    </timestep>
    <timestep time="46.00">
        <vehicle id="background.2" x="250.02" y="-1.60" angle="90.00" type="human" speed="13.30" pos="250.02" lane="e0_0" slope="0.00"/>
        <vehicle id="background.3" x="143.26" y="-1.60" angle="90.00" type="human" speed="12.52" pos="143.26" lane="e0_0" slope="0.00"/>
    </timestep>
    <timestep time="46.50">
        <vehicle id="background.2" x="256.77" y="-1.60" angle="90.00" type="human" speed="13.50" pos="256.77" lane="e0_0" slope="0.00"/>
        <vehicle id="background.3" x="149.45" y="-1.60" angle="90.00" type="human" speed="12.38" pos="149.45" lane="e0_0" slope="0.00"/>
    </timestep>
    <timestep time="47.00">
        <vehicle id="background.2" x="263.48" y="-1.60" angle="90.00" type="human" speed="13.42" pos="263.48" lane="e0_0" slope="0.00"/>
        <vehicle id="background.3" x="155.84" y="-1.60" angle="90.00" type="human" speed="12.78" pos="155.84" lane="e0_0" slope="0.00"/>
    </timestep>
    <timestep time="47.50">
        <vehicle id="background.2" x="270.07" y="-1.60" angle="90.00" type="human" speed="13.18" pos="270.07" lane="e0_0" slope="0.00"/>
        <vehicle id="background.3" x="162.07" y="-1.60" angle="90.00" type="human" speed="12.45" pos="162.07" lane="e0_0" slope="0.00"/>
    </timestep>
    <timestep time="48.00">
        <vehicle id="background.2" x="276.74" y="-1.60" angle="90.00" type="human" speed="13.34" pos="276.74" lane="e0_0" slope="0.00"/>
        <vehicle id="background.3" x="168.24" y="-1.60" angle="90.00" type="human" speed="12.34" pos="168.24" lane="e0_0" slope="0.00"/>
    </timestep>
    <timestep time="48.50">
        <vehicle id="background.2" x="283.22" y="-1.60" angle="90.00" type="human" speed="12.95" pos="283.22" lane="e0_0" slope="0.00"/>
        <vehicle id="background.3" x="174.53" y="-1.60" angle="90.00" type="human" speed="12.58" pos="174.53" lane="e0_0" slope="0.00"/>
    </timestep>
    <timestep time="49.00">
        <vehicle id="background.2" x="288.57" y="-1.60" angle="90.00" type="human" speed="10.70" pos="288.57" lane="e0_0" slope="0.00"/>
        <vehicle id="background.3" x="180.79" y="-1.60" angle="90.00" type="human" speed="12.53" pos="180.79" lane="e0_0" slope="0.00"/>
    </timestep>
    <timestep time="49.50">
        <vehicle id="background.2" x="292.79" y="-1.60" angle="90.00" type="human" speed="8.45" pos="292.79" lane="e0_0" slope="0.00"/>
        <vehicle id="background.3" x="187.03" y="-1.60" angle="90.00" type="human" speed="12.48" pos="187.03" lane="e0_0" slope="0.00"/>
    </timestep>
    <timestep time="50.00">