<?xml version="1.0" encoding="UTF-8"?>

<!-- generated on 2026-05-13 21:30:26 by Eclipse SUMO sumo Version 1.24.0
<sumoConfiguration xmlns:xsi="http://www.w3.org/2001/XMLSchema-instance" xsi:noNamespaceSchemaLocation="http://sumo.dlr.de/xsd/sumoConfiguration.xsd">

    <input>
        <net-file value="scenarios/simple_arterial/simple_arterial.net.xml"/>
        <route-files value="scenarios/simple_arterial/simple_arterial.rou.xml"/>
        <additional-files value="scenarios/simple_arterial/simple_arterial.tls.xml"/>
    </input>

    <output>
        <fcd-output value="runs/fcd_rlhf/episode_00004_seed_204.fcd.xml"/>
    </output>

    <time>
        <begin value="0"/>
        <end value="900"/>
        <step-length value="0.5"/>
    </time>

    <report>
        <no-warnings value="true"/>
    </report>

    <traci_server>
        <remote-port value="22810"/>
    </traci_server>

    <random_number>
        <seed value="204"/>
    </random_number>

</sumoConfiguration>
-->

<fcd-export xmlns:xsi="http://www.w3.org/2001/XMLSchema-instance" xsi:noNamespaceSchemaLocation="http://sumo.dlr.de/xsd/fcd_file.xsd">
    <timestep time="0.00"/>
    <timestep time="0.50"/>
    <timestep time="1.00"/>
    <timestep time="1.50"/>
    <timestep time="2.00"/>
    <timestep time="2.50"/>
    <timestep time="3.00"/>
    <timestep time="3.50"/>
    <timestep time="4.00"/>
    <timestep time="4.50"/>
    <timestep time="5.00"/>
    <timestep time="5.50"/>
    <timestep time="6.00"/>
    <timestep time="6.50"/>
    <timestep time="7.00"/>
    <timestep time="7.50"/>
    <timestep time="8.00"/>
    <timestep time="8.50"/>
    <timestep time="9.00"/>
    <timestep time="9.50"/>
    <timestep time="10.00"/>
    <timestep time="10.50">
        <vehicle id="background.0" x="5.10" y="-1.60" angle="90.00" type="human" speed="13.89" pos="5.10" lane="e0_0" slope="0.00"/>
    </timestep>
    <timestep time="11.00">
        <vehicle id="background.0" x="11.80" y="-1.60" angle="90.00" type="human" speed="13.41" pos="11.80" lane="e0_0" slope="0.00"/>
    </timestep>
    <timestep time="11.50">
        <vehicle id="background.0" x="18.71" y="-1.60" angle="90.00" type="human" speed="13.81" pos="18.71" lane="e0_0" slope="0.00"/>
    </timestep>
    <timestep time="12.00">
        <vehicle id="background.0" x="25.52" y="-1.60" angle="90.00" type="human" speed="13.61" pos="25.52" lane="e0_0" slope="0.00"/>
    </timestep>
    <timestep time="12.50">
        <vehicle id="background.0" x="32.38" y="-1.60" angle="90.00" type="human" speed="13.73" pos="32.38" lane="e0_0" slope="0.00"/>
    </timestep>
    <timestep time="13.00">
        <vehicle id="background.0" x="39.08" y="-1.60" angle="90.00" type="human" speed="13.39" pos="39.08" lane="e0_0" slope="0.00"/>
    </timestep>
    <timestep time="13.50">
        <vehicle id="background.0" x="45.99" y="-1.60" angle="90.00" type="human" speed="13.83" pos="45.99" lane="e0_0" slope="0.00"/>
    </timestep>
    <timestep time="14.00">
        <vehicle id="background.0" x="52.73" y="-1.60" angle="90.00" type="human" speed="13.48" pos="52.73" lane="e0_0" slope="0.00"/>
    </timestep>
    <timestep time="14.50">
        <vehicle id="background.0" x="59.44" y="-1.60" angle="90.00" type="human" speed="13.41" pos="59.44" lane="e0_0" slope="0.00"/>
    </timestep>
    <timestep time="15.00">
        <vehicle id="background.0" x="66.15" y="-1.60" angle="90.00" type="human" speed="13.42" pos="66.15" lane="e0_0" slope="0.00"/>
    </timestep>
    <timestep time="15.50">
        <vehicle id="background.0" x="72.95" y="-1.60" angle="90.00" type="human" speed="13.61" pos="72.95" lane="e0_0" slope="0.00"/>
    </timestep>
    <timestep time="16.00">
        <vehicle id="background.0" x="79.79" y="-1.60" angle="90.00" type="human" speed="13.68" pos="79.79" lane="e0_0" slope="0.00"/>
    </timestep>
    <timestep time="16.50">
        <vehicle id="background.0" x="86.55" y="-1.60" angle="90.00" type="human" speed="13.52" pos="86.55" lane="e0_0" slope="0.00"/>
    </timestep>
    <timestep time="17.00">
        <vehicle id="background.0" x="93.43" y="-1.60" angle="90.00" type="human" speed="13.75" pos="93.43" lane="e0_0" slope="0.00"/>
    </timestep>
    <timestep time="17.50">
        <vehicle id="background.0" x="100.26" y="-1.60" angle="90.00" type="human" speed="13.67" pos="100.26" lane="e0_0" slope="0.00"/>
    </timestep>
    <timestep time="18.00">
        <vehicle id="background.0" x="107.05" y="-1.60" angle="90.00" type="human" speed="13.57" pos="107.05" lane="e0_0" slope="0.00"/>
    </timestep>
    <timestep time="18.50">
        <vehicle id="background.0" x="113.82" y="-1.60" angle="90.00" type="human" speed="13.53" pos="113.82" lane="e0_0" slope="0.00"/>
        <vehicle id="background.1" x="5.10" y="-1.60" angle="90.00" type="human" speed="13.25" pos="5.10" lane="e0_0" slope="0.00"/>
    </timestep>
    <timestep time="19.00">
        <vehicle id="background.0" x="120.54" y="-1.60" angle="90.00" type="human" speed="13.45" pos="120.54" lane="e0_0" slope="0.00"/>
        <vehicle id="background.1" x="11.65" y="-1.60" angle="90.00" type="human" speed="13.10" pos="11.65" lane="e0_0" slope="0.00"/>
    </timestep>
    <timestep time="19.50">
        <vehicle id="background.0" x="127.41" y="-1.60" angle="90.00" type="human" speed="13.73" pos="127.41" lane="e0_0" slope="0.00"/>
        <vehicle id="background.1" x="18.17" y="-1.60" angle="90.00" type="human" speed="13.05" pos="18.17" lane="e0_0" slope="0.00"/>
    </timestep>
    <timestep time="20.00">
        <vehicle id="background.0" x="134.26" y="-1.60" angle="90.00" type="human" speed="13.69" pos="134.26" lane="e0_0" slope="0.00"/>
        <vehicle id="background.1" x="24.65" y="-1.60" angle="90.00" type="human" speed="12.96" pos="24.65" lane="e0_0" slope="0.00"/>
    </timestep>
    <timestep time="20.50">
        <vehicle id="background.0" x="141.03" y="-1.60" angle="90.00" type="human" speed="13.55" pos="141.03" lane="e0_0" slope="0.00"/>
        <vehicle id="background.1" x="31.17" y="-1.60" angle="90.00" type="human" speed="13.04" pos="31.17" lane="e0_0" slope="0.00"/>
    </timestep>
    <timestep time="21.00">
        <vehicle id="background.0" x="147.96" y="-1.60" angle="90.00" type="human" speed="13.87" pos="147.96" lane="e0_0" slope="0.00"/>
        <vehicle id="background.1" x="37.63" y="-1.60" angle="90.00" type="human" speed="12.92" pos="37.63" lane="e0_0" slope="0.00"/>
    </timestep>
    <timestep time="21.50">
        <vehicle id="background.0" x="154.74" y="-1.60" angle="90.00" type="human" speed="13.54" pos="154.74" lane="e0_0" slope="0.00"/>
        <vehicle id="background.1" x="44.03" y="-1.60" angle="90.00" type="human" speed="12.78" pos="44.03" lane="e0_0" slope="0.00"/>
    </timestep>
    <timestep time="22.00">
        <vehicle id="background.0" x="161.61" y="-1.60" angle="90.00" type="human" speed="13.75" pos="161.61" lane="e0_0" slope="0.00"/>
        <vehicle id="background.1" x="50.53" y="-1.60" angle="90.00" type="human" speed="13.01" pos="50.53" lane="e0_0" slope="0.00"/>
    </timestep>
    <timestep time="22.50">
        <vehicle id="background.0" x="168.52" y="-1.60" angle="90.00" type="human" speed="13.83" pos="168.52" lane="e0_0" slope="0.00"/>
        <vehicle id="background.1" x="56.95" y="-1.60" angle="90.00" type="human" speed="12.83" pos="56.95" lane="e0_0" slope="0.00"/>
    </timestep>
    <timestep time="23.00">
        <vehicle id="background.0" x="175.44" y="-1.60" angle="90.00" type="human" speed="13.84" pos="175.44" lane="e0_0" slope="0.00"/>
        <vehicle id="background.1" x="63.43" y="-1.60" angle="90.00" type="human" speed="12.96" pos="63.43" lane="e0_0" slope="0.00"/>
    </timestep>
    <timestep time="23.50">
        <vehicle id="background.0" x="182.22" y="-1.60" angle="90.00" type="human" speed="13.55" pos="182.22" lane="e0_0" slope="0.00"/>
        <vehicle id="background.1" x="69.88" y="-1.60" angle="90.00" type="human" speed="12.90" pos="69.88" lane="e0_0" slope="0.00"/>
    </timestep>
    <timestep time="24.00">
        <vehicle id="background.0" x="189.10" y="-1.60" angle="90.00" type="human" speed="13.76" pos="189.10" lane="e0_0" slope="0.00"/>
        <vehicle id="background.1" x="76.31" y="-1.60" angle="90.00" type="human" speed="12.86" pos="76.31" lane="e0_0" slope="0.00"/>
    </timestep>
    <timestep time="24.50">
        <vehicle id="background.0" x="196.04" y="-1.60" angle="90.00" type="human" speed="13.88" pos="196.04" lane="e0_0" slope="0.00"/>
        <vehicle id="background.1" x="82.84" y="-1.60" angle="90.00" type="human" speed="13.06" pos="82.84" lane="e0_0" slope="0.00"/>
    </timestep>
    <timestep time="25.00">
        <vehicle id="background.0" x="202.78" y="-1.60" angle="90.00" type="human" speed="13.48" pos="202.78" lane="e0_0" slope="0.00"/>
        <vehicle id="background.1" x="89.39" y="-1.60" angle="90.00" type="human" speed="13.10" pos="89.39" lane="e0_0" slope="0.00"/>
    </timestep>
    <timestep time="25.50">
        <vehicle id="background.0" x="209.60" y="-1.60" angle="90.00" type="human" speed="13.64" pos="209.60" lane="e0_0" slope="0.00"/>
        <vehicle id="background.1" x="95.92" y="-1.60" angle="90.00" type="human" speed="13.07" pos="95.92" lane="e0_0" slope="0.00"/>
    </timestep>
    <timestep time="26.00">
        <vehicle id="background.0" x="216.35" y="-1.60" angle="90.00" type="human" speed="13.51" pos="216.35" lane="e0_0" slope="0.00"/>
        <vehicle id="background.1" x="102.32" y="-1.60" angle="90.00" type="human" speed="12.79" pos="102.32" lane="e0_0" slope="0.00"/>
        <vehicle id="background.2" x="5.10" y="-1.60" angle="90.00" type="human" speed="13.89" pos="5.10" lane="e0_0" slope="0.00"/>
    </timestep>
    <timestep time="26.50">
        <vehicle id="background.0" x="223.08" y="-1.60" angle="90.00" type="human" speed="13.45" pos="223.08" lane="e0_0" slope="0.00"/>
        <vehicle id="background.1" x="108.75" y="-1.60" angle="90.00" type="human" speed="12.86" pos="108.75" lane="e0_0" slope="0.00"/>
        <vehicle id="background.2" x="11.83" y="-1.60" angle="90.00" type="human" speed="13.47" pos="11.83" lane="e0_0" slope="0.00"/>
    </timestep>
    <timestep time="27.00">
        <vehicle id="background.0" x="229.86" y="-1.60" angle="90.00" type="human" speed="13.56" pos="229.86" lane="e0_0" slope="0.00"/>
        <vehicle id="background.1" x="115.30" y="-1.60" angle="90.00" type="human" speed="13.10" pos="115.30" lane="e0_0" slope="0.00"/>
        <vehicle id="background.2" x="18.56" y="-1.60" angle="90.00" type="human" speed="13.45" pos="18.56" lane="e0_0" slope="0.00"/>
    </timestep>
    <timestep time="27.50">
        <vehicle id="background.0" x="236.75" y="-1.60" angle="90.00" type="human" speed="13.78" pos="236.75" lane="e0_0" slope="0.00"/>
        <vehicle id="background.1" x="121.72" y="-1.60" angle="90.00" type="human" speed="12.84" pos="121.72" lane="e0_0" slope="0.00"/>
        <vehicle id="background.2" x="25.31" y="-1.60" angle="90.00" type="human" speed="13.51" pos="25.31" lane="e0_0" slope="0.00"/>
    </timestep>
    <timestep time="28.00">
        <vehicle id="background.0" x="243.54" y="-1.60" angle="90.00" type="human" speed="13.58" pos="243.54" lane="e0_0" slope="0.00"/>
        <vehicle id="background.1" x="128.18" y="-1.60" angle="90.00" type="human" speed="12.92" pos="128.18" lane="e0_0" slope="0.00"/>
        <vehicle id="background.2" x="32.10" y="-1.60" angle="90.00" type="human" speed="13.58" pos="32.10" lane="e0_0" slope="0.00"/>
    </timestep>
    <timestep time="28.50">
        <vehicle id="background.0" x="250.46" y="-1.60" angle="90.00" type="human" speed="13.85" pos="250.46" lane="e0_0" slope="0.00"/>
        <vehicle id="background.1" x="134.67" y="-1.60" angle="90.00" type="human" speed="12.99" pos="134.67" lane="e0_0" slope="0.00"/>
        <vehicle id="background.2" x="39.00" y="-1.60" angle="90.00" type="human" speed="13.81" pos="39.00" lane="e0_0" slope="0.00"/>
    </timestep>
    <timestep time="29.00">
        <vehicle id="background.0" x="257.26" y="-1.60" angle="90.00" type="human" speed="13.60" pos="257.26" lane="e0_0" slope="0.00"/>
        <vehicle id="background.1" x="141.20" y="-1.60" angle="90.00" type="human" speed="13.06" pos="141.20" lane="e0_0" slope="0.00"/>
        <vehicle id="background.2" x="45.86" y="-1.60" angle="90.00" type="human" speed="13.71" pos="45.86" lane="e0_0" slope="0.00"/>
    </timestep>
    <timestep time="29.50">
        <vehicle id="background.0" x="264.10" y="-1.60" angle="90.00" type="human" speed="13.67" pos="264.10" lane="e0_0" slope="0.00"/>
        <vehicle id="background.1" x="147.60" y="-1.60" angle="90.00" type="human" speed="12.79" pos="147.60" lane="e0_0" slope="0.00"/>
        <vehicle id="background.2" x="52.64" y="-1.60" angle="90.00" type="human" speed="13.57" pos="52.64" lane="e0_0" slope="0.00"/>
    </timestep>
    <timestep time="30.00">
        <vehicle id="background.0" x="271.02" y="-1.60" angle="90.00" type="human" speed="13.83" pos="271.02" lane="e0_0" slope="0.00"/>
        <vehicle id="background.1" x="154.18" y="-1.60" angle="90.00" type="human" speed="13.16" pos="154.18" lane="e0_0" slope="0.00"/>
        <vehicle id="background.2" x="59.52" y="-1.60" angle="90.00" type="human" speed="13.76" pos="59.52" lane="e0_0" slope="0.00"/>
    </timestep>
    <timestep time="30.50">
        <vehicle id="background.0" x="277.87" y="-1.60" angle="90.00" type="human" speed="13.70" pos="277.87" lane="e0_0" slope="0.00"/>
        <vehicle id="background.1" x="160.60" y="-1.60" angle="90.00" type="human" speed="12.84" pos="160.60" lane="e0_0" slope="0.00"/>
        <vehicle id="background.2" x="66.31" y="-1.60" angle="90.00" type="human" speed="13.57" pos="66.31" lane="e0_0" slope="0.00"/>
    </timestep>
    <timestep time="31.00">
        <vehicle id="background.0" x="284.67" y="-1.60" angle="90.00" type="human" speed="13.62" pos="284.67" lane="e0_0" slope="0.00"/>
        <vehicle id="background.1" x="167.16" y="-1.60" angle="90.00" type="human" speed="13.11" pos="167.16" lane="e0_0" slope="0.00"/>
        <vehicle id="background.2" x="73.18" y="-1.60" angle="90.00" type="human" speed="13.75" pos="73.18" lane="e0_0" slope="0.00"/>
    </timestep>
    <timestep time="31.50">
        <vehicle id="background.0" x="291.55" y="-1.60" angle="90.00" type="human" speed="13.75" pos="291.55" lane="e0_0" slope="0.00"/>
        <vehicle id="background.1" x="173.64" y="-1.60" angle="90.00" type="human" speed="12.97" pos="173.64" lane="e0_0" slope="0.00"/>
        <vehicle id="background.2" x="79.89" y="-1.60" angle="90.00" type="human" speed="13.42" pos="79.89" lane="e0_0" slope="0.00"/>
    </timestep>
    <timestep time="32.00">
        <vehicle id="background.0" x="298.24" y="-1.60" angle="90.00" type="human" speed="13.39" pos="298.24" lane="e0_0" slope="0.00"/>
        <vehicle id="background.1" x="180.13" y="-1.60" angle="90.00" type="human" speed="12.99" pos="180.13" lane="e0_0" slope="0.00"/>
        <vehicle id="background.2" x="86.66" y="-1.60" angle="90.00" type="human" speed="13.54" pos="86.66" lane="e0_0" slope="0.00"/>
    </timestep>
    <timestep time="32.50">
        <vehicle id="background.0" x="305.08" y="-1.60" angle="90.00" type="human" speed="13.87" pos="5.08" lane="e1_0" slope="0.00"/>
        <vehicle id="background.1" x="186.72" y="-1.60" angle="90.00" type="human" speed="13.17" pos="186.72" lane="e0_0" slope="0.00"/>
        <vehicle id="background.2" x="93.60" y="-1.60" angle="90.00" type="human" speed="13.89" pos="93.60" lane="e0_0" slope="0.00"/>
    </timestep>
    <timestep time="33.00">
        <vehicle id="background.0" x="311.92" y="-1.60" angle="90.00" type="human" speed="13.68" pos="11.92" lane="e1_0" slope="0.00"/>
        <vehicle id="background.1" x="193.18" y="-1.60" angle="90.00" type="human" speed="12.92" pos="193.18" lane="e0_0" slope="0.00"/>
        <vehicle id="background.2" x="100.38" y="-1.60" angle="90.00" type="human" speed="13.56" pos="100.38" lane="e0_0" slope="0.00"/>
    </timestep>
    <timestep time="33.50">
        <vehicle id="background.0" x="318.61" y="-1.60" angle="90.00" type="human" speed="13.39" pos="18.61" lane="e1_0" slope="0.00"/>
        <vehicle id="background.1" x="199.63" y="-1.60" angle="90.00" type="human" speed="12.91" pos="199.63" lane="e0_0" slope="0.00"/>
        <vehicle id="background.2" x="107.09" y="-1.60" angle="90.00" type="human" speed="13.41" pos="107.09" lane="e0_0" slope="0.00"/>
    </timestep>
    <timestep time="34.00">
        <vehicle id="background.0" x="325.43" y="-1.60" angle="90.00" type="human" speed="13.65" pos="25.43" lane="e1_0" slope="0.00"/>
        <vehicle id="background.1" x="206.17" y="-1.60" angle="90.00" type="human" speed="13.07" pos="206.17" lane="e0_0" slope="0.00"/>
        <vehicle id="background.2" x="113.88" y="-1.60" angle="90.00" type="human" speed="13.58" pos="113.88" lane="e0_0" slope="0.00"/>
    </timestep>
    <timestep time="34.50">
        <vehicle id="background.0" x="332.14" y="-1.60" angle="90.00" type="human" speed="13.41" pos="32.14" lane="e1_0" slope="0.00"/>
        <vehicle id="background.1" x="212.68" y="-1.60" angle="90.00" type="human" speed="13.01" pos="212.68" lane="e0_0" slope="0.00"/>
        <vehicle id="background.2" x="120.78" y="-1.60" angle="90.00" type="human" speed="13.80" pos="120.78" lane="e0_0" slope="0.00"/>
    </timestep>
    <timestep time="35.00">
        <vehicle id="background.0" x="339.07" y="-1.60" angle="90.00" type="human" speed="13.87" pos="39.07" lane="e1_0" slope="0.00"/>
        <vehicle id="background.1" x="219.15" y="-1.60" angle="90.00" type="human" speed="12.95" pos="219.15" lane="e0_0" slope="0.00"/>
        <vehicle id="background.2" x="127.64" y="-1.60" angle="90.00" type="human" speed="13.73" pos="127.64" lane="e0_0" slope="0.00"/>
    </timestep>
    <timestep time="35.50">
        <vehicle id="background.0" x="345.79" y="-1.60" angle="90.00" type="human" speed="13.43" pos="45.79" lane="e1_0" slope="0.00"/>
        <vehicle id="background.1" x="225.57" y="-1.60" angle="90.00" type="human" speed="12.84" pos="225.57" lane="e0_0" slope="0.00"/>
        <vehicle id="background.2" x="134.36" y="-1.60" angle="90.00" type="human" speed="13.43" pos="134.36" lane="e0_0" slope="0.00"/>
    </timestep>
    <timestep time="36.00">
        <vehicle id="background.1" x="232.09" y="-1.60" angle="90.00" type="human" speed="13.03" pos="232.09" lane="e0_0" slope="0.00"/>
        <vehicle id="background.2" x="141.19" y="-1.60" angle="90.00" type="human" speed="13.66" pos="141.19" lane="e0_0" slope="0.00"/>
    </timestep>
    <timestep time="36.50">
        <vehicle id="background.1" x="238.48" y="-1.60" angle="90.00" type="human" speed="12.78" pos="238.48" lane="e0_0" slope="0.00"/>
        <vehicle id="background.2" x="148.00" y="-1.60" angle="90.00" type="human" speed="13.63" pos="148.00" lane="e0_0" slope="0.00"/>
        <vehicle id="background.3" x="5.10" y="-1.60" angle="90.00" type="human" speed="13.89" pos="5.10" lane="e0_0" slope="0.00"/>
    </timestep>
    <timestep time="37.00">
        <vehicle id="background.1" x="245.02" y="-1.60" angle="90.00" type="human" speed="13.08" pos="245.02" lane="e0_0" slope="0.00"/>
        <vehicle id="background.2" x="154.88" y="-1.60" angle="90.00" type="human" speed="13.76" pos="154.88" lane="e0_0" slope="0.00"/>
        <vehicle id="background.3" x="11.94" y="-1.60" angle="90.00" type="human" speed="13.68" pos="11.94" lane="e0_0" slope="0.00"/>
    </timestep>
    <timestep time="37.50">
        <vehicle id="background.1" x="251.43" y="-1.60" angle="90.00" type="human" speed="12.82" pos="251.43" lane="e0_0" slope="0.00"/>
        <vehicle id="background.2" x="161.63" y="-1.60" angle="90.00" type="human" speed="13.49" pos="161.63" lane="e0_0" slope="0.00"/>
        <vehicle id="background.3" x="18.83" y="-1.60" angle="90.00" type="human" speed="13.78" pos="18.83" lane="e0_0" slope="0.00"/>
    </timestep>
    <timestep time="38.00">
        <vehicle id="background.1" x="257.83" y="-1.60" angle="90.00" type="human" speed="12.80" pos="257.83" lane="e0_0" slope="0.00"/>
        <vehicle id="background.2" x="168.54" y="-1.60" angle="90.00" type="human" speed="13.83" pos="168.54" lane="e0_0" slope="0.00"/>
        <vehicle id="background.3" x="25.54" y="-1.60" angle="90.00" type="human" speed="13.41" pos="25.54" lane="e0_0" slope="0.00"/>
    </timestep>
    <timestep time="38.50">
        <vehicle id="background.1" x="264.40" y="-1.60" angle="90.00" type="human" speed="13.14" pos="264.40" lane="e0_0" slope="0.00"/>
        <vehicle id="background.2" x="175.38" y="-1.60" angle="90.00" type="human" speed="13.69" pos="175.38" lane="e0_0" slope="0.00"/>
        <vehicle id="background.3" x="32.26" y="-1.60" angle="90.00" type="human" speed="13.45" pos="32.26" lane="e0_0" slope="0.00"/>
    </timestep>
    <timestep time="39.00">
        <vehicle id="background.1" x="270.85" y="-1.60" angle="90.00" type="human" speed="12.91" pos="270.85" lane="e0_0" slope="0.00"/>
        <vehicle id="background.2" x="182.13" y="-1.60" angle="90.00" type="human" speed="13.50" pos="182.13" lane="e0_0" slope="0.00"/>
        <vehicle id="background.3" x="39.20" y="-1.60" angle="90.00" type="human" speed="13.88" pos="39.20" lane="e0_0" slope="0.00"/>
    </timestep>
    <timestep time="39.50">
        <vehicle id="background.1" x="277.26" y="-1.60" angle="90.00" type="human" speed="12.81" pos="277.26" lane="e0_0" slope="0.00"/>
        <vehicle id="background.2" x="188.91" y="-1.60" angle="90.00" type="human" speed="13.56" pos="188.91" lane="e0_0" slope="0.00"/>
        <vehicle id="background.3" x="46.11" y="-1.60" angle="90.00" type="human" speed="13.82" pos="46.11" lane="e0_0" slope="0.00"/>
    </timestep>
    <timestep time="40.00">
        <vehicle id="background.1" x="283.82" y="-1.60" angle="90.00" type="human" speed="13.12" pos="283.82" lane="e0_0" slope="0.00"/>
        <vehicle id="background.2" x="195.85" y="-1.60" angle="90.00" type="human" speed="13.88" pos="195.85" lane="e0_0" slope="0.00"/>
        <vehicle id="background.3" x="52.81" y="-1.60" angle="90.00" type="human" speed="13.40" pos="52.81" lane="e0_0" slope="0.00"/>
    </timestep>
    <timestep time="40.50">
        <vehicle id="background.1" x="290.31" y="-1.60" angle="90.00" type="human" speed="12.99" pos="290.31" lane="e0_0" slope="0.00"/>
        <vehicle id="background.2" x="202.79" y="-1.60" angle="90.00" type="human" speed="13.89" pos="202.79" lane="e0_0" slope="0.00"/>
        <vehicle id="background.3" x="59.65" y="-1.60" angle="90.00" type="human" speed="13.66" pos="59.65" lane="e0_0" slope="0.00"/>
    </timestep>
    <timestep time="41.00">
        <vehicle id="background.1" x="296.82" y="-1.60" angle="90.00" type="human" speed="13.01" pos="296.82" lane="e0_0" slope="0.00"/>
        <vehicle id="background.2" x="209.50" y="-1.60" angle="90.00" type="human" speed="13.42" pos="209.50" lane="e0_0" slope="0.00"/>
        <vehicle id="background.3" x="66.40" y="-1.60" angle="90.00" type="human" speed="13.51" pos="66.40" lane="e0_0" slope="0.00"/>
    </timestep>
    <timestep time="41.50">
        <vehicle id="background.1" x="303.10" y="-1.60" angle="90.00" type="human" speed="12.77" pos="3.10" lane="e1_0" slope="0.00"/>
        <vehicle id="background.2" x="216.21" y="-1.60" angle="90.00" type="human" speed="13.41" pos="216.21" lane="e0_0" slope="0.00"/>
        <vehicle id="background.3" x="73.16" y="-1.60" angle="90.00" type="human" speed="13.52" pos="73.16" lane="e0_0" slope="0.00"/>
    </timestep>
    <timestep time="42.00">
        <vehicle id="background.1" x="309.69" y="-1.60" angle="90.00" type="human" speed="13.18" pos="9.69" lane="e1_0" slope="0.00"/>
        <vehicle id="background.2" x="222.91" y="-1.60" angle="90.00" type="human" speed="13.40" pos="222.91" lane="e0_0" slope="0.00"/>
        <vehicle id="background.3" x="80.00" y="-1.60" angle="90.00" type="human" speed="13.68" pos="80.00" lane="e0_0" slope="0.00"/>
    </timestep>
    <timestep time="42.50">
        <vehicle id="background.1" x="316.10" y="-1.60" angle="90.00" type="human" speed="12.80" pos="16.10" lane="e1_0" slope="0.00"/>
        <vehicle id="background.2" x="229.84" y="-1.60" angle="90.00" type="human" speed="13.86" pos="229.84" lane="e0_0" slope="0.00"/>
        <vehicle id="background.3" x="86.83" y="-1.60" angle="90.00" type="human" speed="13.66" pos="86.83" lane="e0_0" slope="0.00"/>
    </timestep>
    <timestep time="43.00">
        <vehicle id="background.1" x="322.52" y="-1.60" angle="90.00" type="human" speed="12.84" pos="22.52" lane="e1_0" slope="0.00"/>
        <vehicle id="background.2" x="236.76" y="-1.60" angle="90.00" type="human" speed="13.84" pos="236.76" lane="e0_0" slope="0.00"/>
        <vehicle id="background.3" x="93.59" y="-1.60" angle="90.00" type="human" speed="13.54" pos="93.59" lane="e0_0" slope="0.00"/>
    </timestep>
    <timestep time="43.50">
        <vehicle id="background.1" x="328.98" y="-1.60" angle="90.00" type="human" speed="12.93" pos="28.98" lane="e1_0" slope="0.00"/>
        <vehicle id="background.2" x="243.69" y="-1.60" angle="90.00" type="human" speed="13.86" pos="243.69" lane="e0_0" slope="0.00"/>
        <vehicle id="background.3" x="100.42" y="-1.60" angle="90.00" type="human" speed="13.65" pos="100.42" lane="e0_0" slope="0.00"/>
    </timestep>
    <timestep time="44.00">
        <vehicle id="background.1" x="335.52" y="-1.60" angle="90.00" type="human" speed="13.07" pos="35.52" lane="e1_0" slope="0.00"/>
        <vehicle id="background.2" x="250.49" y="-1.60" angle="90.00" type="human" speed="13.58" pos="250.49" lane="e0_0" slope="0.00"/>
        <vehicle id="background.3" x="107.29" y="-1.60" angle="90.00" type="human" speed="13.75" pos="107.29" lane="e0_0" slope="0.00"/>
    </timestep>
    <timestep time="44.50">
        <vehicle id="background.1" x="342.10" y="-1.60" angle="90.00" type="human" speed="13.16" pos="42.10" lane="e1_0" slope="0.00"/>
        <vehicle id="background.2" x="257.31" y="-1.60" angle="90.00" type="human" speed="13.64" pos="257.31" lane="e0_0" slope="0.00"/>
        <vehicle id="background.3" x="114.06" y="-1.60" angle="90.00" type="human" speed="13.53" pos="114.06" lane="e0_0" slope="0.00"/>
    </timestep>
    <timestep time="45.00">
        <vehicle id="background.1" x="348.54" y="-1.60" angle="90.00" type="human" speed="12.88" pos="48.54" lane="e1_0" slope="0.00"/>
        <vehicle id="background.2" x="264.25" y="-1.60" angle="90.00" type="human" speed="13.88" pos="264.25" lane="e0_0" slope="0.00"/>
        <vehicle id="background.3" x="120.78" y="-1.60" angle="90.00" type="human" speed="13.44" pos="120.78" lane="e0_0" slope="0.00"/>
    </timestep>
    <timestep time="45.50">
        <vehicle id="background.2" x="271.08" y="-1.60" angle="90.00" type="human" speed="13.66" pos="271.08" lane="e0_0" slope="0.00"/>
        <vehicle id="background.3" x="127.48" y="-1.60" angle="90.00" type="human" speed="13.41" pos="127.48" lane="e0_0" slope="0.00"/>
    </timestep>
    <timestep time="46.00">
        <vehicle id="background.2" x="277.88" y="-1.60" angle="90.00" type="human" speed="13.62" pos="277.88" lane="e0_0" slope="0.00"/>
        <vehicle id="background.3" x="134.35" y="-1.60" angle="90.00" type="human" speed="13.75" pos="134.35" lane="e0_0" slope="0.00"/>
    </timestep>
    <timestep time="46.50">
        <vehicle id="background.2" x="284.15" y="-1.60" angle="90.00" type="human" speed="12.54" pos="284.15" lane="e0_0" slope="0.00"/>
        <vehicle id="background.3" x="141.12" y="-1.60" angle="90.00" type="human" speed="13.54" pos="141.12" lane="e0_0" slope="0.00"/>
    </timestep>
    <timestep time="47.00">
        <vehicle id="background.2" x="289.37" y="-1.60" angle="90.00" type="human" speed="10.43" pos="289.37" lane="e0_0" slope="0.00"/>
        <vehicle id="background.3" x="147.82" y="-1.60" angle="90.00" type="human" speed="13.40" pos="147.82" lane="e0_0" slope="0.00"/>
    </timestep>
    <timestep time="47.50">
        <vehicle id="background.2" x="293.46" y="-1.60" angle="90.00" type="human" speed="8.18" pos="293.46" lane="e0_0" slope="0.00"/>
        <vehicle id="background.3" x="154.60" y="-1.60" angle="90.00" type="human" speed="13.56" pos="154.60" lane="e0_0" slope="0.00"/>
    </timestep>
    <timestep time="48.00">
        <vehicle id="background.2" x="296.42" y="-1.60" angle="90.00" type="human" speed="5.93" pos="296.42" lane="e0_0" slope="0.00"/>
        <vehicle id="background.3" x="161.52" y="-1.60" angle="90.00" type="human" speed="13.83" pos="161.52" lane="e0_0" slope="0.00"/>
    </timestep>
    <timestep time="48.50">
        <vehicle id="background.2" x="298.26" y="-1.60" angle="90.00" type="human" speed="3.68" pos="298.26" lane="e0_0" slope="0.00"/>
        <vehicle id="background.3" x="168.35" y="-1.60" angle="90.00" type="human" speed="13.66" pos="168.35" lane="e0_0" slope="0.00"/>
        <vehicle id="ego" x="5.10" y="-1.60" angle="90.00" type="ego_type" speed="0.00" pos="5.10" lane="e0_0" slope="0.00"/>
    </timestep>
    <timestep time="49.00">
        <vehicle id="background.2" x="298.97" y="-1.60" angle="90.00" type="human" speed="1.43" pos="298.97" lane="e0_0" slope="0.00"/>
        <vehicle id="background.3" x="175.08" y="-1.60" angle="90.00" type="human" speed="13.47" pos="175.08" lane="e0_0" slope="0.00"/>
        <vehicle id="ego" x="5.35" y="-1.60" angle="90.00" type="ego_type" speed="0.50" pos="5.35" lane="e0_0" slope="0.00"/>
    </timestep>
    <timestep time="49.50">
        <vehicle id="background.2" x="299.00" y="-1.60" angle="90.00" type="human" speed="0.05" pos="299.00" lane="e0_0" slope="0.00"/>
        <vehicle id="background.3" x="181.79" y="-1.60" angle="90.00" type="human" speed="13.42" pos="181.79" lane="e0_0" slope="0.00"/>