<?xml version="1.0" encoding="UTF-8"?>

<!-- generated on 2026-05-13 21:30:36 by Eclipse SUMO sumo Version 1.24.0
<sumoConfiguration xmlns:xsi="http://www.w3.org/2001/XMLSchema-instance" xsi:noNamespaceSchemaLocation="http://sumo.dlr.de/xsd/sumoConfiguration.xsd">

    <input>
        <net-file value="scenarios/simple_arterial/simple_arterial.net.xml"/>
        <route-files value="scenarios/simple_arterial/simple_arterial.rou.xml"/>
        <additional-files value="scenarios/simple_arterial/simple_arterial.tls.xml"/>
    </input>

    <output>
        <fcd-output value="runs/fcd_rlhf/episode_00009_seed_209.fcd.xml"/>
    </output>

    <time>
        <begin value="0"/>
        <end value="900"/>
        <step-length value="0.5"/>
    </time>

    <report>
        <no-warnings value="true"/>
    </report>

    <traci_server>
        <remote-port value="22810"/>
    </traci_server>

    <random_number>
        <seed value="209"/>
    </random_number>

</sumoConfiguration>
-->

<fcd-export xmlns:xsi="http://www.w3.org/2001/XMLSchema-instance" xsi:noNamespaceSchemaLocation="http://sumo.dlr.de/xsd/fcd_file.xsd">
    <timestep time="0.00"/>
    <timestep time="0.50"/>
    <timestep time="1.00"/>
    <timestep time="1.50"/>
    <timestep time="2.00"/>
    <timestep time="2.50"/>
    <timestep time="3.00"/>
    <timestep time="3.50"/>
    <timestep time="4.00"/>
    <timestep time="4.50"/>
    <timestep time="5.00"/>
    <timestep time="5.50"/>
    <timestep time="6.00"/>
    <timestep time="6.50"/>
    <timestep time="7.00"/>
    <timestep time="7.50"/>
    <timestep time="8.00"/>
    <timestep time="8.50"/>
    <timestep time="9.00"/>
    <timestep time="9.50"/>
    <timestep time="10.00"/>
    <timestep time="10.50"/>
    <timestep time="11.00"/>
    <timestep time="11.50"/>
    <timestep time="12.00"/>
    <timestep time="12.50"/>
    <timestep time="13.00"/>
    <timestep time="13.50"/>
    <timestep time="14.00"/>
    <timestep time="14.50"/>
    <timestep time="15.00"/>
    <timestep time="15.50"/>
    <timestep time="16.00"/>
    <timestep time="16.50"/>
    <timestep time="17.00"/>
    <timestep time="17.50"/>
    <timestep time="18.00"/>
    <timestep time="18.50"/>
    <timestep time="19.00"/>
    <timestep time="19.50"/>
    <timestep time="20.00"/>
    <timestep time="20.50"/>
    <timestep time="21.00"/>
    <timestep time="21.50"/>
    <timestep time="22.00"/>
    <timestep time="22.50"/>
    <timestep time="23.00"/>
    <timestep time="23.50"/>
    <timestep time="24.00"/>
    <timestep time="24.50"/>
    <timestep time="25.00"/>
    <timestep time="25.50"/>
    <timestep time="26.00">
        <vehicle id="ego" x="5.10" y="-1.60" angle="90.00" type="ego_type" speed="0.00" pos="5.10" lane="e0_0" slope="0.00"/>
    </timestep>
    <timestep time="26.50">
        <vehicle id="ego" x="5.10" y="-1.60" angle="90.00" type="ego_type" speed="0.00" pos="5.10" lane="e0_0" slope="0.00"/>
    </timestep>
    <timestep time="27.00">
        <vehicle id="ego" x="5.10" y="-1.60" angle="90.00" type="ego_type" speed="0.00" pos="5.10" lane="e0_0" slope="0.00"/>
    </timestep>
    <timestep time="27.50">
        <vehicle id="ego" x="5.10" y="-1.60" angle="90.00" type="ego_type" speed="0.00" pos="5.10" lane="e0_0" slope="0.00"/>
    </timestep>
    <timestep time="28.00">
        <vehicle id="ego" x="5.10" y="-1.60" angle="90.00" type="ego_type" speed="0.00" pos="5.10" lane="e0_0" slope="0.00"/>
    </timestep>
    <timestep time="28.50">
        <vehicle id="ego" x="5.10" y="-1.60" angle="90.00" type="ego_type" speed="0.00" pos="5.10" lane="e0_0" slope="0.00"/>
    </timestep>
    <timestep time="29.00">
        <vehicle id="ego" x="5.10" y="-1.60" angle="90.00" type="ego_type" speed="0.00" pos="5.10" lane="e0_0" slope="0.00"/>
    </timestep>
    <timestep time="29.50">
        <vehicle id="ego" x="5.10" y="-1.60" angle="90.00" type="ego_type" speed="0.00" pos="5.10" lane="e0_0" slope="0.00"/>
    </timestep>
    <timestep time="30.00">
        <vehicle id="ego" x="5.10" y="-1.60" angle="90.00" type="ego_type" speed="0.00" pos="5.10" lane="e0_0" slope="0.00"/>
    </timestep>
    <timestep time="30.50">
        <vehicle id="ego" x="5.10" y="-1.60" angle="90.00" type="ego_type" speed="0.00" pos="5.10" lane="e0_0" slope="0.00"/>
    </timestep>
    <timestep time="31.00">
        <vehicle id="ego" x="5.10" y="-1.60" angle="90.00" type="ego_type" speed="0.00" pos="5.10" lane="e0_0" slope="0.00"/>
    </timestep>
    <timestep time="31.50">
        <vehicle id="ego" x="5.10" y="-1.60" angle="90.00" type="ego_type" speed="0.00" pos="5.10" lane="e0_0" slope="0.00"/>
    </timestep>
    <timestep time="32.00">
        <vehicle id="ego" x="5.10" y="-1.60" angle="90.00" type="ego_type" speed="0.00" pos="5.10" lane="e0_0" slope="0.00"/>
    </timestep>
    <timestep time="32.50">
        <vehicle id="ego" x="5.10" y="-1.60" angle="90.00" type="ego_type" speed="0.00" pos="5.10" lane="e0_0" slope="0.00"/>
    </timestep>
    <timestep time="33.00">
        <vehicle id="ego" x="5.10" y="-1.60" angle="90.00" type="ego_type" speed="0.00" pos="5.10" lane="e0_0" slope="0.00"/>
    </timestep>
    <timestep time="33.50">
        <vehicle id="ego" x="5.10" y="-1.60" angle="90.00" type="ego_type" speed="0.00" pos="5.10" lane="e0_0" slope="0.00"/>
    </timestep>
    <timestep time="34.00">
        <vehicle id="ego" x="5.10" y="-1.60" angle="90.00" type="ego_type" speed="0.00" pos="5.10" lane="e0_0" slope="0.00"/>
    </timestep>
    <timestep time="34.50">
        <vehicle id="ego" x="5.10" y="-1.60" angle="90.00" type="ego_type" speed="0.00" pos="5.10" lane="e0_0" slope="0.00"/>
    </timestep>
    <timestep time="35.00">
        <vehicle id="ego" x="5.10" y="-1.60" angle="90.00" type="ego_type" speed="0.00" pos="5.10" lane="e0_0" slope="0.00"/>
    </timestep>
    <timestep time="35.50">
        <vehicle id="ego" x="5.10" y="-1.60" angle="90.00" type="ego_type" speed="0.00" pos="5.10" lane="e0_0" slope="0.00"/>
    </timestep>
    <timestep time="36.00">
        <vehicle id="ego" x="5.10" y="-1.60" angle="90.00" type="ego_type" speed="0.00" pos="5.10" lane="e0_0" slope="0.00"/>
    </timestep>
    <timestep time="36.50">
        <vehicle id="ego" x="5.10" y="-1.60" angle="90.00" type="ego_type" speed="0.00" pos="5.10" lane="e0_0" slope="0.00"/>
    </timestep>
    <timestep time="37.00">
        <vehicle id="ego" x="5.10" y="-1.60" angle="90.00" type="ego_type" speed="0.00" pos="5.10" lane="e0_0" slope="0.00"/>
    </timestep>
    <timestep time="37.50">
        <vehicle id="ego" x="5.10" y="-1.60" angle="90.00" type="ego_type" speed="0.00" pos="5.10" lane="e0_0" slope="0.00"/>
    </timestep>
    <timestep time="38.00">
        <vehicle id="ego" x="5.10" y="-1.60" angle="90.00" type="ego_type" speed="0.00" pos="5.10" lane="e0_0" slope="0.00"/>
    </timestep>
    <timestep time="38.50">
        <vehicle id="ego" x="5.10" y="-1.60" angle="90.00" type="ego_type" speed="0.00" pos="5.10" lane="e0_0" slope="0.00"/>
    </timestep>
    <timestep time="39.00">
        <vehicle id="ego" x="5.10" y="-1.60" angle="90.00" type="ego_type" speed="0.00" pos="5.10" lane="e0_0" slope="0.00"/>
    </timestep>
    <timestep time="39.50">
        <vehicle id="ego" x="5.10" y="-1.60" angle="90.00" type="ego_type" speed="0.00" pos="5.10" lane="e0_0" slope="0.00"/>
    </timestep>
    <timestep time="40.00">
        <vehicle id="ego" x="5.10" y="-1.60" angle="90.00" type="ego_type" speed="0.00" pos="5.10" lane="e0_0" slope="0.00"/>
    </timestep>
    <timestep time="40.50">
        <vehicle id="ego" x="5.10" y="-1.60" angle="90.00" type="ego_type" speed="0.00" pos="5.10" lane="e0_0" slope="0.00"/>
    </timestep>
    <timestep time="41.00">
        <vehicle id="ego" x="5.10" y="-1.60" angle="90.00" type="ego_type" speed="0.00" pos="5.10" lane="e0_0" slope="0.00"/>
    </timestep>
    <timestep time="41.50">
        <vehicle id="ego" x="5.10" y="-1.60" angle="90.00" type="ego_type" speed="0.00" pos="5.10" lane="e0_0" slope="0.00"/>
    </timestep>
    <timestep time="42.00">
        <vehicle id="ego" x="5.10" y="-1.60" angle="90.00" type="ego_type" speed="0.00" pos="5.10" lane="e0_0" slope="0.00"/>
    </timestep>
    <timestep time="42.50">
        <vehicle id="ego" x="5.10" y="-1.60" angle="90.00" type="ego_type" speed="0.00" pos="5.10" lane="e0_0" slope="0.00"/>
    </timestep>
    <timestep time="43.00">
        <vehicle id="ego" x="5.10" y="-1.60" angle="90.00" type="ego_type" speed="0.00" pos="5.10" lane="e0_0" slope="0.00"/>
    </timestep>
    <timestep time="43.50">
        <vehicle id="ego" x="5.10" y="-1.60" angle="90.00" type="ego_type" speed="0.00" pos="5.10" lane="e0_0" slope="0.00"/>
    </timestep>
    <timestep time="44.00">
        <vehicle id="ego" x="5.10" y="-1.60" angle="90.00" type="ego_type" speed="0.00" pos="5.10" lane="e0_0" slope="0.00"/>
    </timestep>
    <timestep time="44.50">
        <vehicle id="ego" x="5.10" y="-1.60" angle="90.00" type="ego_type" speed="0.00" pos="5.10" lane="e0_0" slope="0.00"/>
    </timestep>
    <timestep time="45.00">
        <vehicle id="ego" x="5.10" y="-1.60" angle="90.00" type="ego_type" speed="0.00" pos="5.10" lane="e0_0" slope="0.00"/>
    </timestep>
    <timestep time="45.50">
        <vehicle id="ego" x="5.10" y="-1.60" angle="90.00" type="ego_type" speed="0.00" pos="5.10" lane="e0_0" slope="0.00"/>
    </timestep>
    <timestep time="46.00">
        <vehicle id="ego" x="5.10" y="-1.60" angle="90.00" type="ego_type" speed="0.00" pos="5.10" lane="e0_0" slope="0.00"/>
    </timestep>
    <timestep time="46.50">
        <vehicle id="ego" x="5.10" y="-1.60" angle="90.00" type="ego_type" speed="0.00" pos="5.10" lane="e0_0" slope="0.00"/>
    </timestep>
    <timestep time="47.00">
        <vehicle id="ego" x="5.10" y="-1.60" angle="90.00" type="ego_type" speed="0.00" pos="5.10" lane="e0_0" slope="0.00"/>
    </timestep>
    <timestep time="47.50">
        <vehicle id="ego" x="5.35" y="-1.60" angle="90.00" type="ego_type" speed="0.50" pos="5.35" lane="e0_0" slope="0.00"/>
    </timestep>
    <timestep time="48.00">
        <vehicle id="ego" x="6.10" y="-1.60" angle="90.00" type="ego_type" speed="1.50" pos="6.10" lane="e0_0" slope="0.00"/>
    </timestep>
    <timestep time="48.50">
        <vehicle id="ego" x="7.35" y="-1.60" angle="90.00" type="ego_type" speed="2.50" pos="7.35" lane="e0_0" slope="0.00"/>
    </timestep>
    <timestep time="49.00">
        <vehicle id="ego" x="9.10" y="-1.60" angle="90.00" type="ego_type" speed="3.50" pos="9.10" lane="e0_0" slope="0.00"/>
    </timestep>
    <timestep time="49.50">
        <vehicle id="ego" x="11.35" y="-1.60" angle="90.00" type="ego_type" speed="4.50" pos="11.35" lane="e0_0" slope="0.00"/>
    </timestep>
    <timestep time="50.00">
        <vehicle id="background.0" x="5.10" y="-1.60" angle="90.00" type="human" speed="2.67" pos="5.10" lane="e0_0" slope="0.00"/>
        <vehicle id="ego" x="13.85" y="-1.60" angle="90.00" type="ego_type" speed="5.00" pos="13.85" lane="e0_0" slope="0.00"/>
    </timestep>
    <timestep time="50.50">
        <vehicle id="background.0" x="6.32" y="-1.60" angle="90.00" type="human" speed="2.45" pos="6.32" lane="e0_0" slope="0.00"/>
        <vehicle id="ego" x="16.60" y="-1.60" angle="90.00" type="ego_type" speed="5.50" pos="16.60" lane="e0_0" slope="0.00"/>
    </timestep>
    <timestep time="51.00">
        <vehicle id="background.0" x="7.97" y="-1.60" angle="90.00" type="human" speed="3.28" pos="7.97" lane="e0_0" slope="0.00"/>
        <vehicle id="ego" x="19.60" y="-1.60" angle="90.00" type="ego_type" speed="6.00" pos="19.60" lane="e0_0" slope="0.00"/>
    </timestep>
    <timestep time="51.50">
        <vehicle id="background.0" x="9.96" y="-1.60" angle="90.00" type="human" speed="3.98" pos="9.96" lane="e0_0" slope="0.00"/>
        <vehicle id="ego" x="22.85" y="-1.60" angle="90.00" type="ego_type" speed="6.50" pos="22.85" lane="e0_0" slope="0.00"/>
    </timestep>
    <timestep time="52.00">
        <vehicle id="background.0" x="12.34" y="-1.60" angle="90.00" type="human" speed="4.76" pos="12.34" lane="e0_0" slope="0.00"/>
        <vehicle id="ego" x="26.35" y="-1.60" angle="90.00" type="ego_type" speed="7.00" pos="26.35" lane="e0_0" slope="0.00"/>
    </timestep>
    <timestep time="52.50">
        <vehicle id="background.0" x="15.09" y="-1.60" angle="90.00" type="human" speed="5.51" pos="15.09" lane="e0_0" slope="0.00"/>
        <vehicle id="background.1" x="5.10" y="-1.60" angle="90.00" type="human" speed="3.83" pos="5.10" lane="e0_0" slope="0.00"/>
        <vehicle id="ego" x="29.85" y="-1.60" angle="90.00" type="ego_type" speed="7.00" pos="29.85" lane="e0_0" slope="0.00"/>
    </timestep>
    <timestep time="53.00">
        <vehicle id="background.0" x="18.25" y="-1.60" angle="90.00" type="human" speed="6.31" pos="18.25" lane="e0_0" slope="0.00"/>
        <vehicle id="background.1" x="6.92" y="-1.60" angle="90.00" type="human" speed="3.64" pos="6.92" lane="e0_0" slope="0.00"/>
        <vehicle id="ego" x="33.35" y="-1.60" angle="90.00" type="ego_type" speed="7.00" pos="33.35" lane="e0_0" slope="0.00"/>
    </timestep>
    <timestep time="53.50">
        <vehicle id="background.0" x="21.74" y="-1.60" angle="90.00" type="human" speed="6.98" pos="21.74" lane="e0_0" slope="0.00"/>
        <vehicle id="background.1" x="9.13" y="-1.60" angle="90.00" type="human" speed="4.43" pos="9.13" lane="e0_0" slope="0.00"/>
        <vehicle id="ego" x="36.85" y="-1.60" angle="90.00" type="ego_type" speed="7.00" pos="36.85" lane="e0_0" slope="0.00"/>
    </timestep>
    <timestep time="54.00">
        <vehicle id="background.0" x="25.26" y="-1.60" angle="90.00" type="human" speed="7.04" pos="25.26" lane="e0_0" slope="0.00"/>
        <vehicle id="background.1" x="11.80" y="-1.60" angle="90.00" type="human" speed="5.34" pos="11.80" lane="e0_0" slope="0.00"/>
        <vehicle id="ego" x="40.35" y="-1.60" angle="90.00" type="ego_type" speed="7.00" pos="40.35" lane="e0_0" slope="0.00"/>
    </timestep>
    <timestep time="54.50">
        <vehicle id="background.0" x="28.69" y="-1.60" angle="90.00" type="human" speed="6.86" pos="28.69" lane="e0_0" slope="0.00"/>
        <vehicle id="background.1" x="14.82" y="-1.60" angle="90.00" type="human" speed="6.04" pos="14.82" lane="e0_0" slope="0.00"/>
        <vehicle id="background.2" x="5.10" y="-1.60" angle="90.00" type="human" speed="4.01" pos="5.10" lane="e0_0" slope="0.00"/>
        <vehicle id="ego" x="43.85" y="-1.60" angle="90.00" type="ego_type" speed="7.00" pos="43.85" lane="e0_0" slope="0.00"/>
    </timestep>
    <timestep time="55.00">
        <vehicle id="background.0" x="32.32" y="-1.60" angle="90.00" type="human" speed="7.26" pos="32.32" lane="e0_0" slope="0.00"/>
        <vehicle id="background.1" x="17.99" y="-1.60" angle="90.00" type="human" speed="6.34" pos="17.99" lane="e0_0" slope="0.00"/>
        <vehicle id="background.2" x="7.01" y="-1.60" angle="90.00" type="human" speed="3.82" pos="7.01" lane="e0_0" slope="0.00"/>
        <vehicle id="ego" x="47.35" y="-1.60" angle="90.00" type="ego_type" speed="7.00" pos="47.35" lane="e0_0" slope="0.00"/>
    </timestep>
    <timestep time="55.50">
        <vehicle id="background.0" x="35.83" y="-1.60" angle="90.00" type="human" speed="7.02" pos="35.83" lane="e0_0" slope="0.00"/>
        <vehicle id="background.1" x="21.40" y="-1.60" angle="90.00" type="human" speed="6.81" pos="21.40" lane="e0_0" slope="0.00"/>
        <vehicle id="background.2" x="9.41" y="-1.60" angle="90.00" type="human" speed="4.81" pos="9.41" lane="e0_0" slope="0.00"/>
        <vehicle id="ego" x="50.85" y="-1.60" angle="90.00" type="ego_type" speed="7.00" pos="50.85" lane="e0_0" slope="0.00"/>
    </timestep>
    <timestep time="56.00">
        <vehicle id="background.0" x="39.19" y="-1.60" angle="90.00" type="human" speed="6.72" pos="39.19" lane="e0_0" slope="0.00"/>
        <vehicle id="background.1" x="24.88" y="-1.60" angle="90.00" type="human" speed="6.96" pos="24.88" lane="e0_0" slope="0.00"/>
        <vehicle id="background.2" x="12.00" y="-1.60" angle="90.00" type="human" speed="5.18" pos="12.00" lane="e0_0" slope="0.00"/>
        <vehicle id="ego" x="54.35" y="-1.60" angle="90.00" type="ego_type" speed="7.00" pos="54.35" lane="e0_0" slope="0.00"/>
    </timestep>
    <timestep time="56.50">
        <vehicle id="background.0" x="42.71" y="-1.60" angle="90.00" type="human" speed="7.05" pos="42.71" lane="e0_0" slope="0.00"/>
        <vehicle id="background.1" x="28.19" y="-1.60" angle="90.00" type="human" speed="6.62" pos="28.19" lane="e0_0" slope="0.00"/>
        <vehicle id="background.2" x="14.87" y="-1.60" angle="90.00" type="human" speed="5.74" pos="14.87" lane="e0_0" slope="0.00"/>
        <vehicle id="background.3" x="5.10" y="-1.60" angle="90.00" type="human" speed="3.84" pos="5.10" lane="e0_0" slope="0.00"/>
        <vehicle id="ego" x="57.85" y="-1.60" angle="90.00" type="ego_type" speed="7.00" pos="57.85" lane="e0_0" slope="0.00"/>
    </timestep>
    <timestep time="57.00">
        <vehicle id="background.0" x="46.14" y="-1.60" angle="90.00" type="human" speed="6.85" pos="46.14" lane="e0_0" slope="0.00"/>
        <vehicle id="background.1" x="31.59" y="-1.60" angle="90.00" type="human" speed="6.80" pos="31.59" lane="e0_0" slope="0.00"/>
        <vehicle id="background.2" x="17.95" y="-1.60" angle="90.00" type="human" speed="6.16" pos="17.95" lane="e0_0" slope="0.00"/>
        <vehicle id="background.3" x="6.93" y="-1.60" angle="90.00" type="human" speed="3.66" pos="6.93" lane="e0_0" slope="0.00"/>
        <vehicle id="ego" x="61.35" y="-1.60" angle="90.00" type="ego_type" speed="7.00" pos="61.35" lane="e0_0" slope="0.00"/>
    </timestep>
    <timestep time="57.50">
        <vehicle id="background.0" x="49.72" y="-1.60" angle="90.00" type="human" speed="7.16" pos="49.72" lane="e0_0" slope="0.00"/>
        <vehicle id="background.1" x="34.84" y="-1.60" angle="90.00" type="human" speed="6.51" pos="34.84" lane="e0_0" slope="0.00"/>
        <vehicle id="background.2" x="21.19" y="-1.60" angle="90.00" type="human" speed="6.48" pos="21.19" lane="e0_0" slope="0.00"/>
        <vehicle id="background.3" x="9.09" y="-1.60" angle="90.00" type="human" speed="4.33" pos="9.09" lane="e0_0" slope="0.00"/>
        <vehicle id="ego" x="64.85" y="-1.60" angle="90.00" type="ego_type" speed="7.00" pos="64.85" lane="e0_0" slope="0.00"/>
    </timestep>
    <timestep time="58.00">
        <vehicle id="background.0" x="53.27" y="-1.60" angle="90.00" type="human" speed="7.11" pos="53.27" lane="e0_0" slope="0.00"/>
        <vehicle id="background.1" x="38.29" y="-1.60" angle="90.00" type="human" speed="6.89" pos="38.29" lane="e0_0" slope="0.00"/>
        <vehicle id="background.2" x="24.18" y="-1.60" angle="90.00" type="human" speed="5.97" pos="24.18" lane="e0_0" slope="0.00"/>
        <vehicle id="background.3" x="11.71" y="-1.60" angle="90.00" type="human" speed="5.24" pos="11.71" lane="e0_0" slope="0.00"/>
        <vehicle id="ego" x="68.35" y="-1.60" angle="90.00" type="ego_type" speed="7.00" pos="68.35" lane="e0_0" slope="0.00"/>
    </timestep>
    <timestep time="58.50">
        <vehicle id="background.0" x="56.78" y="-1.60" angle="90.00" type="human" speed="7.00" pos="56.78" lane="e0_0" slope="0.00"/>
        <vehicle id="background.1" x="41.90" y="-1.60" angle="90.00" type="human" speed="7.23" pos="41.90" lane="e0_0" slope="0.00"/>
        <vehicle id="background.2" x="27.48" y="-1.60" angle="90.00" type="human" speed="6.60" pos="27.48" lane="e0_0" slope="0.00"/>
        <vehicle id="background.3" x="14.21" y="-1.60" angle="90.00" type="human" speed="5.00" pos="14.21" lane="e0_0" slope="0.00"/>
        <vehicle id="ego" x="71.85" y="-1.60" angle="90.00" type="ego_type" speed="7.00" pos="71.85" lane="e0_0" slope="0.00"/>
    </timestep>
    <timestep time="59.00">
        <vehicle id="background.0" x="60.25" y="-1.60" angle="90.00" type="human" speed="6.94" pos="60.25" lane="e0_0" slope="0.00"/>
        <vehicle id="background.1" x="45.38" y="-1.60" angle="90.00" type="human" speed="6.95" pos="45.38" lane="e0_0" slope="0.00"/>
        <vehicle id="background.2" x="30.83" y="-1.60" angle="90.00" type="human" speed="6.70" pos="30.83" lane="e0_0" slope="0.00"/>
        <vehicle id="background.3" x="17.00" y="-1.60" angle="90.00" type="human" speed="5.57" pos="17.00" lane="e0_0" slope="0.00"/>
        <vehicle id="ego" x="75.35" y="-1.60" angle="90.00" type="ego_type" speed="7.00" pos="75.35" lane="e0_0" slope="0.00"/>
    </timestep>
    <timestep time="59.50">
        <vehicle id="background.0" x="63.86" y="-1.60" angle="90.00" type="human" speed="7.22" pos="63.86" lane="e0_0" slope="0.00"/>
        <vehicle id="background.1" x="48.92" y="-1.60" angle="90.00" type="human" speed="7.08" pos="48.92" lane="e0_0" slope="0.00"/>
        <vehicle id="background.2" x="34.19" y="-1.60" angle="90.00" type="human" speed="6.72" pos="34.19" lane="e0_0" slope="0.00"/>
        <vehicle id="background.3" x="20.08" y="-1.60" angle="90.00" type="human" speed="6.17" pos="20.08" lane="e0_0" slope="0.00"/>
        <vehicle id="ego" x="78.85" y="-1.60" angle="90.00" type="ego_type" speed="7.00" pos="78.85" lane="e0_0" slope="0.00"/>
    </timestep>
    <timestep time="60.00">
        <vehicle id="background.0" x="67.29" y="-1.60" angle="90.00" type="human" speed="6.87" pos="67.29" lane="e0_0" slope="0.00"/>
        <vehicle id="background.1" x="52.39" y="-1.60" angle="90.00" type="human" speed="6.94" pos="52.39" lane="e0_0" slope="0.00"/>
        <vehicle id="background.2" x="37.63" y="-1.60" angle="90.00" type="human" speed="6.89" pos="37.63" lane="e0_0" slope="0.00"/>
        <vehicle id="background.3" x="23.33" y="-1.60" angle="90.00" type="human" speed="6.49" pos="23.33" lane="e0_0" slope="0.00"/>
        <vehicle id="ego" x="82.35" y="-1.60" angle="90.00" type="ego_type" speed="7.00" pos="82.35" lane="e0_0" slope="0.00"/>
    </timestep>
    <timestep time="60.50">
        <vehicle id="background.0" x="70.78" y="-1.60" angle="90.00" type="human" speed="6.98" pos="70.78" lane="e0_0" slope="0.00"/>
        <vehicle id="background.1" x="55.73" y="-1.60" angle="90.00" type="human" speed="6.68" pos="55.73" lane="e0_0" slope="0.00"/>
        <vehicle id="background.2" x="41.05" y="-1.60" angle="90.00" type="human" speed="6.83" pos="41.05" lane="e0_0" slope="0.00"/>
        <vehicle id="background.3" x="26.74" y="-1.60" angle="90.00" type="human" speed="6.82" pos="26.74" lane="e0_0" slope="0.00"/>
        <vehicle id="ego" x="85.85" y="-1.60" angle="90.00" type="ego_type" speed="7.00" pos="85.85" lane="e0_0" slope="0.00"/>
    </timestep>
    <timestep time="61.00">
        <vehicle id="background.0" x="74.25" y="-1.60" angle="90.00" type="human" speed="6.94" pos="74.25" lane="e0_0" slope="0.00"/>
        <vehicle id="background.1" x="59.09" y="-1.60" angle="90.00" type="human" speed="6.73" pos="59.09" lane="e0_0" slope="0.00"/>
        <vehicle id="background.2" x="44.41" y="-1.60" angle="90.00" type="human" speed="6.73" pos="44.41" lane="e0_0" slope="0.00"/>
        <vehicle id="background.3" x="30.15" y="-1.60" angle="90.00" type="human" speed="6.82" pos="30.15" lane="e0_0" slope="0.00"/>
        <vehicle id="ego" x="89.35" y="-1.60" angle="90.00" type="ego_type" speed="7.00" pos="89.35" lane="e0_0" slope="0.00"/>
    </timestep>
    <timestep time="61.50">
        <vehicle id="background.0" x="77.82" y="-1.60" angle="90.00" type="human" speed="7.12" pos="77.82" lane="e0_0" slope="0.00"/>
        <vehicle id="background.1" x="62.70" y="-1.60" angle="90.00" type="human" speed="7.21" pos="62.70" lane="e0_0" slope="0.00"/>
        <vehicle id="background.2" x="47.73" y="-1.60" angle="90.00" type="human" speed="6.64" pos="47.73" lane="e0_0" slope="0.00"/>
        <vehicle id="background.3" x="33.30" y="-1.60" angle="90.00" type="human" speed="6.31" pos="33.30" lane="e0_0" slope="0.00"/>
        <vehicle id="ego" x="92.85" y="-1.60" angle="90.00" type="ego_type" speed="7.00" pos="92.85" lane="e0_0" slope="0.00"/>
    </timestep>
    <timestep time="62.00">
        <vehicle id="background.0" x="81.39" y="-1.60" angle="90.00" type="human" speed="7.15" pos="81.39" lane="e0_0" slope="0.00"/>
        <vehicle id="background.1" x="66.33" y="-1.60" angle="90.00" type="human" speed="7.25" pos="66.33" lane="e0_0" slope="0.00"/>
        <vehicle id="background.2" x="51.33" y="-1.60" angle="90.00" type="human" speed="7.20" pos="51.33" lane="e0_0" slope="0.00"/>
        <vehicle id="background.3" x="36.52" y="-1.60" angle="90.00" type="human" speed="6.43" pos="36.52" lane="e0_0" slope="0.00"/>
        <vehicle id="ego" x="96.35" y="-1.60" angle="90.00" type="ego_type" speed="7.00" pos="96.35" lane="e0_0" slope="0.00"/>
    </timestep>
    <timestep time="62.50">
        <vehicle id="background.0" x="84.96" y="-1.60" angle="90.00" type="human" speed="7.12" pos="84.96" lane="e0_0" slope="0.00"/>
        <vehicle id="background.1" x="69.83" y="-1.60" angle="90.00" type="human" speed="7.01" pos="69.83" lane="e0_0" slope="0.00"/>
        <vehicle id="background.2" x="54.86" y="-1.60" angle="90.00" type="human" speed="7.06" pos="54.86" lane="e0_0" slope="0.00"/>
        <vehicle id="background.3" x="40.13" y="-1.60" angle="90.00" type="human" speed="7.24" pos="40.13" lane="e0_0" slope="0.00"/>
        <vehicle id="ego" x="99.85" y="-1.60" angle="90.00" type="ego_type" speed="7.00" pos="99.85" lane="e0_0" slope="0.00"/>
    </timestep>
    <timestep time="63.00">
        <vehicle id="background.0" x="88.43" y="-1.60" angle="90.00" type="human" speed="6.96" pos="88.43" lane="e0_0" slope="0.00"/>
        <vehicle id="background.1" x="73.29" y="-1.60" angle="90.00" type="human" speed="6.92" pos="73.29" lane="e0_0" slope="0.00"/>
        <vehicle id="background.2" x="58.33" y="-1.60" angle="90.00" type="human" speed="6.95" pos="58.33" lane="e0_0" slope="0.00"/>
        <vehicle id="background.3" x="43.67" y="-1.60" angle="90.00" type="human" speed="7.07" pos="43.67" lane="e0_0" slope="0.00"/>
        <vehicle id="ego" x="103.35" y="-1.60" angle="90.00" type="ego_type" speed="7.00" pos="103.35" lane="e0_0" slope="0.00"/>
    </timestep>
    <timestep time="63.50">
        <vehicle id="background.0" x="91.93" y="-1.60" angle="90.00" type="human" speed="6.99" pos="91.93" lane="e0_0" slope="0.00"/>
        <vehicle id="background.1" x="76.67" y="-1.60" angle="90.00" type="human" speed="6.76" pos="76.67" lane="e0_0" slope="0.00"/>
        <vehicle id="background.2" x="61.68" y="-1.60" angle="90.00" type="human" speed="6.70" pos="61.68" lane="e0_0" slope="0.00"/>
        <vehicle id="background.3" x="47.05" y="-1.60" angle="90.00" type="human" speed="6.75" pos="47.05" lane="e0_0" slope="0.00"/>
        <vehicle id="ego" x="106.85" y="-1.60" angle="90.00" type="ego_type" speed="7.00" pos="106.85" lane="e0_0" slope="0.00"/>
    </timestep>
    <timestep time="64.00">
        <vehicle id="background.0" x="95.41" y="-1.60" angle="90.00" type="human" speed="6.95" pos="95.41" lane="e0_0" slope="0.00"/>
        <vehicle id="background.1" x="80.23" y="-1.60" angle="90.00" type="human" speed="7.13" pos="80.23" lane="e0_0" slope="0.00"/>
        <vehicle id="background.2" x="65.08" y="-1.60" angle="90.00" type="human" speed="6.80" pos="65.08" lane="e0_0" slope="0.00"/>
        <vehicle id="background.3" x="50.26" y="-1.60" angle="90.00" type="human" speed="6.42" pos="50.26" lane="e0_0" slope="0.00"/>
        <vehicle id="ego" x="110.35" y="-1.60" angle="90.00" type="ego_type" speed="7.00" pos="110.35" lane="e0_0" slope="0.00"/>
    </timestep>
    <timestep time="64.50">
        <vehicle id="background.0" x="98.98" y="-1.60" angle="90.00" type="human" speed="7.16" pos="98.98" lane="e0_0" slope="0.00"/>
        <vehicle id="background.1" x="83.74" y="-1.60" angle="90.00" type="human" speed="7.02" pos="83.74" lane="e0_0" slope="0.00"/>
        <vehicle id="background.2" x="68.62" y="-1.60" angle="90.00" type="human" speed="7.08" pos="68.62" lane="e0_0" slope="0.00"/>
        <vehicle id="background.3" x="53.54" y="-1.60" angle="90.00" type="human" speed="6.57" pos="53.54" lane="e0_0" slope="0.00"/>
        <vehicle id="ego" x="113.85" y="-1.60" angle="90.00" type="ego_type" speed="7.00" pos="113.85" lane="e0_0" slope="0.00"/>
    </timestep>
    <timestep time="65.00">
        <vehicle id="background.0" x="102.46" y="-1.60" angle="90.00" type="human" speed="6.96" pos="102.46" lane="e0_0" slope="0.00"/>
        <vehicle id="background.1" x="87.43" y="-1.60" angle="90.00" type="human" speed="7.37" pos="87.43" lane="e0_0" slope="0.00"/>
        <vehicle id="background.2" x="72.05" y="-1.60" angle="90.00" type="human" speed="6.85" pos="72.05" lane="e0_0" slope="0.00"/>
        <vehicle id="background.3" x="57.14" y="-1.60" angle="90.00" type="human" speed="7.19" pos="57.14" lane="e0_0" slope="0.00"/>
        <vehicle id="ego" x="117.35" y="-1.60" angle="90.00" type="ego_type" speed="7.00" pos="117.35" lane="e0_0" slope="0.00"/>
    </timestep>
    <timestep time="65.50">
        <vehicle id="background.0" x="106.02" y="-1.60" angle="90.00" type="human" speed="7.10" pos="106.02" lane="e0_0" slope="0.00"/>
        <vehicle id="background.1" x="91.00" y="-1.60" angle="90.00" type="human" speed="7.14" pos="91.00" lane="e0_0" slope="0.00"/>
        <vehicle id="background.2" x="75.61" y="-1.60" angle="90.00" type="human" speed="7.13" pos="75.61" lane="e0_0" slope="0.00"/>
        <vehicle id="background.3" x="60.47" y="-1.60" angle="90.00" type="human" speed="6.67" pos="60.47" lane="e0_0" slope="0.00"/>
        <vehicle id="ego" x="120.85" y="-1.60" angle="90.00" type="ego_type" speed="7.00" pos="120.85" lane="e0_0" slope="0.00"/>
    </timestep>
    <timestep time="66.00">
        <vehicle id="background.0" x="109.35" y="-1.60" angle="90.00" type="human" speed="6.68" pos="109.35" lane="e0_0" slope="0.00"/>