<?xml version="1.0" encoding="UTF-8"?>

<!-- generated on 2026-05-13 21:30:38 by Eclipse SUMO sumo Version 1.24.0
<sumoConfiguration xmlns:xsi="http://www.w3.org/2001/XMLSchema-instance" xsi:noNamespaceSchemaLocation="http://sumo.dlr.de/xsd/sumoConfiguration.xsd">

    <input>
        <net-file value="scenarios/simple_arterial/simple_arterial.net.xml"/>
        <route-files value="scenarios/simple_arterial/simple_arterial.rou.xml"/>
        <additional-files value="scenarios/simple_arterial/simple_arterial.tls.xml"/>
    </input>

    <output>
        <fcd-output value="runs/fcd_rlhf/episode_00010_seed_210.fcd.xml"/>
    </output>

    <time>
        <begin value="0"/>
        <end value="900"/>
        <step-length value="0.5"/>
    </time>

    <report>
        <no-warnings value="true"/>
    </report>

    <traci_server>
        <remote-port value="22810"/>
    </traci_server>

    <random_number>
        <seed value="210"/>
    </random_number>

</sumoConfiguration>
-->

<fcd-export xmlns:xsi="http://www.w3.org/2001/XMLSchema-instance" xsi:noNamespaceSchemaLocation="http://sumo.dlr.de/xsd/fcd_file.xsd">
    <timestep time="0.00"/>
    <timestep time="0.50"/>
    <timestep time="1.00"/>
    <timestep time="1.50"/>
    <timestep time="2.00"/>
    <timestep time="2.50"/>
    <timestep time="3.00"/>
    <timestep time="3.50"/>
    <timestep time="4.00"/>
    <timestep time="4.50"/>
    <timestep time="5.00"/>
    <timestep time="5.50"/>
    <timestep time="6.00"/>
    <timestep time="6.50"/>
    <timestep time="7.00"/>
    <timestep time="7.50"/>
    <timestep time="8.00"/>
    <timestep time="8.50"/>
    <timestep time="9.00"/>
    <timestep time="9.50"/>
    <timestep time="10.00"/>
    <timestep time="10.50"/>
    <timestep time="11.00"/>
    <timestep time="11.50"/>
    <timestep time="12.00"/>
    <timestep time="12.50"/>
    <timestep time="13.00"/>
    <timestep time="13.50"/>
    <timestep time="14.00"/>
    <timestep time="14.50"/>
    <timestep time="15.00"/>
    <timestep time="15.50"/>
    <timestep time="16.00"/>
    <timestep time="16.50"/>
    <timestep time="17.00"/>
    <timestep time="17.50"/>
    <timestep time="18.00"/>
    <timestep time="18.50"/>
    <timestep time="19.00"/>
    <timestep time="19.50">
        <vehicle id="background.0" x="5.10" y="-1.60" angle="90.00" type="human" speed="12.59" pos="5.10" lane="e0_0" slope="0.00"/>
    </timestep>
    <timestep time="20.00">
        <vehicle id="background.0" x="11.20" y="-1.60" angle="90.00" type="human" speed="12.20" pos="11.20" lane="e0_0" slope="0.00"/>
    </timestep>
    <timestep time="20.50">
        <vehicle id="background.0" x="17.46" y="-1.60" angle="90.00" type="human" speed="12.53" pos="17.46" lane="e0_0" slope="0.00"/>
    </timestep>
    <timestep time="21.00">
        <vehicle id="background.0" x="23.59" y="-1.60" angle="90.00" type="human" speed="12.24" pos="23.59" lane="e0_0" slope="0.00"/>
    </timestep>
    <timestep time="21.50">
        <vehicle id="background.0" x="29.74" y="-1.60" angle="90.00" type="human" speed="12.31" pos="29.74" lane="e0_0" slope="0.00"/>
    </timestep>
    <timestep time="22.00">
        <vehicle id="background.0" x="35.79" y="-1.60" angle="90.00" type="human" speed="12.11" pos="35.79" lane="e0_0" slope="0.00"/>
    </timestep>
    <timestep time="22.50">
        <vehicle id="background.0" x="41.86" y="-1.60" angle="90.00" type="human" speed="12.13" pos="41.86" lane="e0_0" slope="0.00"/>
    </timestep>
    <timestep time="23.00">
        <vehicle id="background.0" x="48.15" y="-1.60" angle="90.00" type="human" speed="12.58" pos="48.15" lane="e0_0" slope="0.00"/>
    </timestep>
    <timestep time="23.50">
        <vehicle id="background.0" x="54.21" y="-1.60" angle="90.00" type="human" speed="12.13" pos="54.21" lane="e0_0" slope="0.00"/>
    </timestep>
    <timestep time="24.00">
        <vehicle id="background.0" x="60.26" y="-1.60" angle="90.00" type="human" speed="12.10" pos="60.26" lane="e0_0" slope="0.00"/>
    </timestep>
    <timestep time="24.50">
        <vehicle id="background.0" x="66.42" y="-1.60" angle="90.00" type="human" speed="12.31" pos="66.42" lane="e0_0" slope="0.00"/>
    </timestep>
    <timestep time="25.00">
        <vehicle id="background.0" x="72.64" y="-1.60" angle="90.00" type="human" speed="12.44" pos="72.64" lane="e0_0" slope="0.00"/>
    </timestep>
    <timestep time="25.50">
        <vehicle id="background.0" x="78.70" y="-1.60" angle="90.00" type="human" speed="12.11" pos="78.70" lane="e0_0" slope="0.00"/>
    </timestep>
    <timestep time="26.00">
        <vehicle id="background.0" x="84.75" y="-1.60" angle="90.00" type="human" speed="12.11" pos="84.75" lane="e0_0" slope="0.00"/>
    </timestep>
    <timestep time="26.50">
        <vehicle id="background.0" x="90.87" y="-1.60" angle="90.00" type="human" speed="12.23" pos="90.87" lane="e0_0" slope="0.00"/>
    </timestep>
    <timestep time="27.00">
        <vehicle id="background.0" x="96.97" y="-1.60" angle="90.00" type="human" speed="12.20" pos="96.97" lane="e0_0" slope="0.00"/>
    </timestep>
    <timestep time="27.50">
        <vehicle id="background.0" x="103.22" y="-1.60" angle="90.00" type="human" speed="12.50" pos="103.22" lane="e0_0" slope="0.00"/>
    </timestep>
    <timestep time="28.00">
        <vehicle id="background.0" x="109.33" y="-1.60" angle="90.00" type="human" speed="12.23" pos="109.33" lane="e0_0" slope="0.00"/>
    </timestep>
    <timestep time="28.50">
        <vehicle id="background.0" x="115.63" y="-1.60" angle="90.00" type="human" speed="12.58" pos="115.63" lane="e0_0" slope="0.00"/>
    </timestep>
    <timestep time="29.00">
        <vehicle id="background.0" x="121.80" y="-1.60" angle="90.00" type="human" speed="12.35" pos="121.80" lane="e0_0" slope="0.00"/>
    </timestep>
    <timestep time="29.50">
        <vehicle id="background.0" x="128.02" y="-1.60" angle="90.00" type="human" speed="12.44" pos="128.02" lane="e0_0" slope="0.00"/>
    </timestep>
    <timestep time="30.00">
        <vehicle id="background.0" x="134.11" y="-1.60" angle="90.00" type="human" speed="12.17" pos="134.11" lane="e0_0" slope="0.00"/>
    </timestep>
    <timestep time="30.50">
        <vehicle id="background.0" x="140.16" y="-1.60" angle="90.00" type="human" speed="12.11" pos="140.16" lane="e0_0" slope="0.00"/>
    </timestep>
    <timestep time="31.00">
        <vehicle id="background.0" x="146.38" y="-1.60" angle="90.00" type="human" speed="12.43" pos="146.38" lane="e0_0" slope="0.00"/>
    </timestep>
    <timestep time="31.50">
        <vehicle id="background.0" x="152.46" y="-1.60" angle="90.00" type="human" speed="12.17" pos="152.46" lane="e0_0" slope="0.00"/>
    </timestep>
    <timestep time="32.00">
        <vehicle id="background.0" x="158.70" y="-1.60" angle="90.00" type="human" speed="12.47" pos="158.70" lane="e0_0" slope="0.00"/>
    </timestep>
    <timestep time="32.50">
        <vehicle id="background.0" x="164.99" y="-1.60" angle="90.00" type="human" speed="12.59" pos="164.99" lane="e0_0" slope="0.00"/>
    </timestep>
    <timestep time="33.00">
        <vehicle id="background.0" x="171.09" y="-1.60" angle="90.00" type="human" speed="12.20" pos="171.09" lane="e0_0" slope="0.00"/>
    </timestep>
    <timestep time="33.50">
        <vehicle id="background.0" x="177.30" y="-1.60" angle="90.00" type="human" speed="12.42" pos="177.30" lane="e0_0" slope="0.00"/>
    </timestep>
    <timestep time="34.00">
        <vehicle id="background.0" x="183.54" y="-1.60" angle="90.00" type="human" speed="12.48" pos="183.54" lane="e0_0" slope="0.00"/>
    </timestep>
    <timestep time="34.50">
        <vehicle id="background.0" x="189.70" y="-1.60" angle="90.00" type="human" speed="12.32" pos="189.70" lane="e0_0" slope="0.00"/>
    </timestep>
    <timestep time="35.00">
        <vehicle id="background.0" x="195.84" y="-1.60" angle="90.00" type="human" speed="12.28" pos="195.84" lane="e0_0" slope="0.00"/>
    </timestep>
    <timestep time="35.50">
        <vehicle id="background.0" x="202.06" y="-1.60" angle="90.00" type="human" speed="12.43" pos="202.06" lane="e0_0" slope="0.00"/>
        <vehicle id="background.1" x="5.10" y="-1.60" angle="90.00" type="human" speed="13.47" pos="5.10" lane="e0_0" slope="0.00"/>
    </timestep>
    <timestep time="36.00">
        <vehicle id="background.0" x="208.29" y="-1.60" angle="90.00" type="human" speed="12.45" pos="208.29" lane="e0_0" slope="0.00"/>
        <vehicle id="background.1" x="11.77" y="-1.60" angle="90.00" type="human" speed="13.35" pos="11.77" lane="e0_0" slope="0.00"/>
    </timestep>
    <timestep time="36.50">
        <vehicle id="background.0" x="214.34" y="-1.60" angle="90.00" type="human" speed="12.11" pos="214.34" lane="e0_0" slope="0.00"/>
        <vehicle id="background.1" x="18.33" y="-1.60" angle="90.00" type="human" speed="13.11" pos="18.33" lane="e0_0" slope="0.00"/>
    </timestep>
    <timestep time="37.00">
        <vehicle id="background.0" x="220.51" y="-1.60" angle="90.00" type="human" speed="12.34" pos="220.51" lane="e0_0" slope="0.00"/>
        <vehicle id="background.1" x="25.07" y="-1.60" angle="90.00" type="human" speed="13.47" pos="25.07" lane="e0_0" slope="0.00"/>
    </timestep>
    <timestep time="37.50">
        <vehicle id="background.0" x="226.72" y="-1.60" angle="90.00" type="human" speed="12.41" pos="226.72" lane="e0_0" slope="0.00"/>
        <vehicle id="background.1" x="31.76" y="-1.60" angle="90.00" type="human" speed="13.40" pos="31.76" lane="e0_0" slope="0.00"/>
    </timestep>
    <timestep time="38.00">
        <vehicle id="background.0" x="232.82" y="-1.60" angle="90.00" type="human" speed="12.21" pos="232.82" lane="e0_0" slope="0.00"/>
        <vehicle id="background.1" x="38.27" y="-1.60" angle="90.00" type="human" speed="13.01" pos="38.27" lane="e0_0" slope="0.00"/>
    </timestep>
    <timestep time="38.50">
        <vehicle id="background.0" x="239.04" y="-1.60" angle="90.00" type="human" speed="12.44" pos="239.04" lane="e0_0" slope="0.00"/>
        <vehicle id="background.1" x="44.98" y="-1.60" angle="90.00" type="human" speed="13.42" pos="44.98" lane="e0_0" slope="0.00"/>
        <vehicle id="background.2" x="5.10" y="-1.60" angle="90.00" type="human" speed="13.89" pos="5.10" lane="e0_0" slope="0.00"/>
    </timestep>
    <timestep time="39.00">
        <vehicle id="background.0" x="245.23" y="-1.60" angle="90.00" type="human" speed="12.39" pos="245.23" lane="e0_0" slope="0.00"/>
        <vehicle id="background.1" x="51.53" y="-1.60" angle="90.00" type="human" speed="13.11" pos="51.53" lane="e0_0" slope="0.00"/>
        <vehicle id="background.2" x="11.88" y="-1.60" angle="90.00" type="human" speed="13.56" pos="11.88" lane="e0_0" slope="0.00"/>
    </timestep>
    <timestep time="39.50">
        <vehicle id="background.0" x="251.47" y="-1.60" angle="90.00" type="human" speed="12.47" pos="251.47" lane="e0_0" slope="0.00"/>
        <vehicle id="background.1" x="58.03" y="-1.60" angle="90.00" type="human" speed="13.00" pos="58.03" lane="e0_0" slope="0.00"/>
        <vehicle id="background.2" x="18.71" y="-1.60" angle="90.00" type="human" speed="13.65" pos="18.71" lane="e0_0" slope="0.00"/>
    </timestep>
    <timestep time="40.00">
        <vehicle id="background.0" x="257.62" y="-1.60" angle="90.00" type="human" speed="12.30" pos="257.62" lane="e0_0" slope="0.00"/>
        <vehicle id="background.1" x="64.60" y="-1.60" angle="90.00" type="human" speed="13.14" pos="64.60" lane="e0_0" slope="0.00"/>
        <vehicle id="background.2" x="25.47" y="-1.60" angle="90.00" type="human" speed="13.53" pos="25.47" lane="e0_0" slope="0.00"/>
    </timestep>
    <timestep time="40.50">
        <vehicle id="background.0" x="263.74" y="-1.60" angle="90.00" type="human" speed="12.25" pos="263.74" lane="e0_0" slope="0.00"/>
        <vehicle id="background.1" x="71.25" y="-1.60" angle="90.00" type="human" speed="13.30" pos="71.25" lane="e0_0" slope="0.00"/>
        <vehicle id="background.2" x="32.37" y="-1.60" angle="90.00" type="human" speed="13.80" pos="32.37" lane="e0_0" slope="0.00"/>
    </timestep>
    <timestep time="41.00">
        <vehicle id="background.0" x="269.89" y="-1.60" angle="90.00" type="human" speed="12.30" pos="269.89" lane="e0_0" slope="0.00"/>
        <vehicle id="background.1" x="77.90" y="-1.60" angle="90.00" type="human" speed="13.30" pos="77.90" lane="e0_0" slope="0.00"/>
        <vehicle id="background.2" x="39.24" y="-1.60" angle="90.00" type="human" speed="13.75" pos="39.24" lane="e0_0" slope="0.00"/>
    </timestep>
    <timestep time="41.50">
        <vehicle id="background.0" x="276.11" y="-1.60" angle="90.00" type="human" speed="12.44" pos="276.11" lane="e0_0" slope="0.00"/>
        <vehicle id="background.1" x="84.41" y="-1.60" angle="90.00" type="human" speed="13.02" pos="84.41" lane="e0_0" slope="0.00"/>
        <vehicle id="background.2" x="46.12" y="-1.60" angle="90.00" type="human" speed="13.75" pos="46.12" lane="e0_0" slope="0.00"/>
    </timestep>
    <timestep time="42.00">
        <vehicle id="background.0" x="282.19" y="-1.60" angle="90.00" type="human" speed="12.16" pos="282.19" lane="e0_0" slope="0.00"/>
        <vehicle id="background.1" x="91.04" y="-1.60" angle="90.00" type="human" speed="13.26" pos="91.04" lane="e0_0" slope="0.00"/>
        <vehicle id="background.2" x="53.02" y="-1.60" angle="90.00" type="human" speed="13.81" pos="53.02" lane="e0_0" slope="0.00"/>
    </timestep>
    <timestep time="42.50">
        <vehicle id="background.0" x="288.42" y="-1.60" angle="90.00" type="human" speed="12.45" pos="288.42" lane="e0_0" slope="0.00"/>
        <vehicle id="background.1" x="97.74" y="-1.60" angle="90.00" type="human" speed="13.39" pos="97.74" lane="e0_0" slope="0.00"/>
        <vehicle id="background.2" x="59.73" y="-1.60" angle="90.00" type="human" speed="13.43" pos="59.73" lane="e0_0" slope="0.00"/>
    </timestep>
    <timestep time="43.00">
        <vehicle id="background.0" x="294.50" y="-1.60" angle="90.00" type="human" speed="12.16" pos="294.50" lane="e0_0" slope="0.00"/>
        <vehicle id="background.1" x="104.40" y="-1.60" angle="90.00" type="human" speed="13.33" pos="104.40" lane="e0_0" slope="0.00"/>
        <vehicle id="background.2" x="66.61" y="-1.60" angle="90.00" type="human" speed="13.76" pos="66.61" lane="e0_0" slope="0.00"/>
    </timestep>
    <timestep time="43.50">
        <vehicle id="background.0" x="300.51" y="-1.60" angle="90.00" type="human" speed="12.24" pos="0.51" lane="e1_0" slope="0.00"/>
        <vehicle id="background.1" x="110.89" y="-1.60" angle="90.00" type="human" speed="12.97" pos="110.89" lane="e0_0" slope="0.00"/>
        <vehicle id="background.2" x="73.49" y="-1.60" angle="90.00" type="human" speed="13.76" pos="73.49" lane="e0_0" slope="0.00"/>
    </timestep>
    <timestep time="44.00">
        <vehicle id="background.0" x="306.75" y="-1.60" angle="90.00" type="human" speed="12.47" pos="6.75" lane="e1_0" slope="0.00"/>
        <vehicle id="background.1" x="117.45" y="-1.60" angle="90.00" type="human" speed="13.14" pos="117.45" lane="e0_0" slope="0.00"/>
        <vehicle id="background.2" x="80.21" y="-1.60" angle="90.00" type="human" speed="13.43" pos="80.21" lane="e0_0" slope="0.00"/>
    </timestep>
    <timestep time="44.50">
        <vehicle id="background.0" x="313.01" y="-1.60" angle="90.00" type="human" speed="12.51" pos="13.01" lane="e1_0" slope="0.00"/>
        <vehicle id="background.1" x="124.12" y="-1.60" angle="90.00" type="human" speed="13.33" pos="124.12" lane="e0_0" slope="0.00"/>
        <vehicle id="background.2" x="87.12" y="-1.60" angle="90.00" type="human" speed="13.83" pos="87.12" lane="e0_0" slope="0.00"/>
    </timestep>
    <timestep time="45.00">
        <vehicle id="background.0" x="319.07" y="-1.60" angle="90.00" type="human" speed="12.14" pos="19.07" lane="e1_0" slope="0.00"/>
        <vehicle id="background.1" x="130.64" y="-1.60" angle="90.00" type="human" speed="13.05" pos="130.64" lane="e0_0" slope="0.00"/>
        <vehicle id="background.2" x="93.92" y="-1.60" angle="90.00" type="human" speed="13.58" pos="93.92" lane="e0_0" slope="0.00"/>
    </timestep>
    <timestep time="45.50">
        <vehicle id="background.0" x="325.30" y="-1.60" angle="90.00" type="human" speed="12.46" pos="25.30" lane="e1_0" slope="0.00"/>
        <vehicle id="background.1" x="137.33" y="-1.60" angle="90.00" type="human" speed="13.37" pos="137.33" lane="e0_0" slope="0.00"/>
        <vehicle id="background.2" x="100.67" y="-1.60" angle="90.00" type="human" speed="13.51" pos="100.67" lane="e0_0" slope="0.00"/>
    </timestep>
    <timestep time="46.00">
        <vehicle id="background.0" x="331.58" y="-1.60" angle="90.00" type="human" speed="12.57" pos="31.58" lane="e1_0" slope="0.00"/>
        <vehicle id="background.1" x="143.98" y="-1.60" angle="90.00" type="human" speed="13.31" pos="143.98" lane="e0_0" slope="0.00"/>
        <vehicle id="background.2" x="107.53" y="-1.60" angle="90.00" type="human" speed="13.73" pos="107.53" lane="e0_0" slope="0.00"/>
    </timestep>
    <timestep time="46.50">
        <vehicle id="background.0" x="337.85" y="-1.60" angle="90.00" type="human" speed="12.52" pos="37.85" lane="e1_0" slope="0.00"/>
        <vehicle id="background.1" x="150.65" y="-1.60" angle="90.00" type="human" speed="13.32" pos="150.65" lane="e0_0" slope="0.00"/>
        <vehicle id="background.2" x="114.28" y="-1.60" angle="90.00" type="human" speed="13.49" pos="114.28" lane="e0_0" slope="0.00"/>
    </timestep>
    <timestep time="47.00">
        <vehicle id="background.0" x="344.14" y="-1.60" angle="90.00" type="human" speed="12.59" pos="44.14" lane="e1_0" slope="0.00"/>
        <vehicle id="background.1" x="157.31" y="-1.60" angle="90.00" type="human" speed="13.33" pos="157.31" lane="e0_0" slope="0.00"/>
        <vehicle id="background.2" x="121.21" y="-1.60" angle="90.00" type="human" speed="13.86" pos="121.21" lane="e0_0" slope="0.00"/>
        <vehicle id="background.3" x="5.10" y="-1.60" angle="90.00" type="human" speed="13.89" pos="5.10" lane="e0_0" slope="0.00"/>
    </timestep>
    <timestep time="47.50">
        <vehicle id="background.1" x="163.85" y="-1.60" angle="90.00" type="human" speed="13.08" pos="163.85" lane="e0_0" slope="0.00"/>
        <vehicle id="background.2" x="128.02" y="-1.60" angle="90.00" type="human" speed="13.62" pos="128.02" lane="e0_0" slope="0.00"/>
        <vehicle id="background.3" x="11.89" y="-1.60" angle="90.00" type="human" speed="13.58" pos="11.89" lane="e0_0" slope="0.00"/>
    </timestep>
    <timestep time="48.00">
        <vehicle id="background.1" x="170.44" y="-1.60" angle="90.00" type="human" speed="13.17" pos="170.44" lane="e0_0" slope="0.00"/>
        <vehicle id="background.2" x="134.94" y="-1.60" angle="90.00" type="human" speed="13.84" pos="134.94" lane="e0_0" slope="0.00"/>
        <vehicle id="background.3" x="18.68" y="-1.60" angle="90.00" type="human" speed="13.59" pos="18.68" lane="e0_0" slope="0.00"/>
    </timestep>
    <timestep time="48.50">
        <vehicle id="background.1" x="177.04" y="-1.60" angle="90.00" type="human" speed="13.19" pos="177.04" lane="e0_0" slope="0.00"/>
        <vehicle id="background.2" x="141.77" y="-1.60" angle="90.00" type="human" speed="13.64" pos="141.77" lane="e0_0" slope="0.00"/>
        <vehicle id="background.3" x="25.44" y="-1.60" angle="90.00" type="human" speed="13.52" pos="25.44" lane="e0_0" slope="0.00"/>
    </timestep>
    <timestep time="49.00">
        <vehicle id="background.1" x="183.56" y="-1.60" angle="90.00" type="human" speed="13.04" pos="183.56" lane="e0_0" slope="0.00"/>
        <vehicle id="background.2" x="148.57" y="-1.60" angle="90.00" type="human" speed="13.60" pos="148.57" lane="e0_0" slope="0.00"/>
        <vehicle id="background.3" x="32.15" y="-1.60" angle="90.00" type="human" speed="13.42" pos="32.15" lane="e0_0" slope="0.00"/>
    </timestep>
    <timestep time="49.50">
        <vehicle id="background.1" x="190.15" y="-1.60" angle="90.00" type="human" speed="13.18" pos="190.15" lane="e0_0" slope="0.00"/>
        <vehicle id="background.2" x="155.30" y="-1.60" angle="90.00" type="human" speed="13.46" pos="155.30" lane="e0_0" slope="0.00"/>
        <vehicle id="background.3" x="38.95" y="-1.60" angle="90.00" type="human" speed="13.60" pos="38.95" lane="e0_0" slope="0.00"/>
    </timestep>
    <timestep time="50.00">
        <vehicle id="background.1" x="196.65" y="-1.60" angle="90.00" type="human" speed="13.01" pos="196.65" lane="e0_0" slope="0.00"/>
        <vehicle id="background.2" x="162.01" y="-1.60" angle="90.00" type="human" speed="13.43" pos="162.01" lane="e0_0" slope="0.00"/>
        <vehicle id="background.3" x="45.72" y="-1.60" angle="90.00" type="human" speed="13.54" pos="45.72" lane="e0_0" slope="0.00"/>
    </timestep>
    <timestep time="50.50">
        <vehicle id="background.1" x="203.32" y="-1.60" angle="90.00" type="human" speed="13.33" pos="203.32" lane="e0_0" slope="0.00"/>
        <vehicle id="background.2" x="168.79" y="-1.60" angle="90.00" type="human" speed="13.56" pos="168.79" lane="e0_0" slope="0.00"/>
        <vehicle id="background.3" x="52.42" y="-1.60" angle="90.00" type="human" speed="13.39" pos="52.42" lane="e0_0" slope="0.00"/>
    </timestep>
    <timestep time="51.00">
        <vehicle id="background.1" x="209.84" y="-1.60" angle="90.00" type="human" speed="13.04" pos="209.84" lane="e0_0" slope="0.00"/>
        <vehicle id="background.2" x="175.66" y="-1.60" angle="90.00" type="human" speed="13.75" pos="175.66" lane="e0_0" slope="0.00"/>
        <vehicle id="background.3" x="59.21" y="-1.60" angle="90.00" type="human" speed="13.59" pos="59.21" lane="e0_0" slope="0.00"/>
    </timestep>
    <timestep time="51.50">
        <vehicle id="background.1" x="216.41" y="-1.60" angle="90.00" type="human" speed="13.15" pos="216.41" lane="e0_0" slope="0.00"/>
        <vehicle id="background.2" x="182.55" y="-1.60" angle="90.00" type="human" speed="13.77" pos="182.55" lane="e0_0" slope="0.00"/>
        <vehicle id="background.3" x="65.94" y="-1.60" angle="90.00" type="human" speed="13.46" pos="65.94" lane="e0_0" slope="0.00"/>
    </timestep>
    <timestep time="52.00">
        <vehicle id="background.1" x="223.01" y="-1.60" angle="90.00" type="human" speed="13.20" pos="223.01" lane="e0_0" slope="0.00"/>
        <vehicle id="background.2" x="189.49" y="-1.60" angle="90.00" type="human" speed="13.88" pos="189.49" lane="e0_0" slope="0.00"/>
        <vehicle id="background.3" x="72.75" y="-1.60" angle="90.00" type="human" speed="13.62" pos="72.75" lane="e0_0" slope="0.00"/>
    </timestep>
    <timestep time="52.50">
        <vehicle id="background.1" x="229.56" y="-1.60" angle="90.00" type="human" speed="13.09" pos="229.56" lane="e0_0" slope="0.00"/>
        <vehicle id="background.2" x="196.39" y="-1.60" angle="90.00" type="human" speed="13.81" pos="196.39" lane="e0_0" slope="0.00"/>
        <vehicle id="background.3" x="79.59" y="-1.60" angle="90.00" type="human" speed="13.67" pos="79.59" lane="e0_0" slope="0.00"/>
    </timestep>
    <timestep time="53.00">
        <vehicle id="background.1" x="236.10" y="-1.60" angle="90.00" type="human" speed="13.07" pos="236.10" lane="e0_0" slope="0.00"/>
        <vehicle id="background.2" x="203.29" y="-1.60" angle="90.00" type="human" speed="13.80" pos="203.29" lane="e0_0" slope="0.00"/>
        <vehicle id="background.3" x="86.30" y="-1.60" angle="90.00" type="human" speed="13.44" pos="86.30" lane="e0_0" slope="0.00"/>
    </timestep>
    <timestep time="53.50">
        <vehicle id="background.1" x="242.77" y="-1.60" angle="90.00" type="human" speed="13.34" pos="242.77" lane="e0_0" slope="0.00"/>
        <vehicle id="background.2" x="210.05" y="-1.60" angle="90.00" type="human" speed="13.51" pos="210.05" lane="e0_0" slope="0.00"/>
        <vehicle id="background.3" x="93.00" y="-1.60" angle="90.00" type="human" speed="13.39" pos="93.00" lane="e0_0" slope="0.00"/>
    </timestep>
    <timestep time="54.00">
        <vehicle id="background.1" x="249.30" y="-1.60" angle="90.00" type="human" speed="13.08" pos="249.30" lane="e0_0" slope="0.00"/>
        <vehicle id="background.2" x="216.86" y="-1.60" angle="90.00" type="human" speed="13.63" pos="216.86" lane="e0_0" slope="0.00"/>
        <vehicle id="background.3" x="99.84" y="-1.60" angle="90.00" type="human" speed="13.68" pos="99.84" lane="e0_0" slope="0.00"/>
    </timestep>
    <timestep time="54.50">
        <vehicle id="background.1" x="255.95" y="-1.60" angle="90.00" type="human" speed="13.29" pos="255.95" lane="e0_0" slope="0.00"/>
        <vehicle id="background.2" x="223.65" y="-1.60" angle="90.00" type="human" speed="13.58" pos="223.65" lane="e0_0" slope="0.00"/>
        <vehicle id="background.3" x="106.57" y="-1.60" angle="90.00" type="human" speed="13.45" pos="106.57" lane="e0_0" slope="0.00"/>
    </timestep>
    <timestep time="55.00">
        <vehicle id="background.1" x="262.44" y="-1.60" angle="90.00" type="human" speed="12.99" pos="262.44" lane="e0_0" slope="0.00"/>
        <vehicle id="background.2" x="230.47" y="-1.60" angle="90.00" type="human" speed="13.65" pos="230.47" lane="e0_0" slope="0.00"/>
        <vehicle id="background.3" x="113.38" y="-1.60" angle="90.00" type="human" speed="13.62" pos="113.38" lane="e0_0" slope="0.00"/>
    </timestep>
    <timestep time="55.50">
        <vehicle id="background.1" x="269.09" y="-1.60" angle="90.00" type="human" speed="13.30" pos="269.09" lane="e0_0" slope="0.00"/>
        <vehicle id="background.2" x="237.26" y="-1.60" angle="90.00" type="human" speed="13.58" pos="237.26" lane="e0_0" slope="0.00"/>
        <vehicle id="background.3" x="120.31" y="-1.60" angle="90.00" type="human" speed="13.86" pos="120.31" lane="e0_0" slope="0.00"/>
        <vehicle id="background.4" x="5.10" y="-1.60" angle="90.00" type="human" speed="12.49" pos="5.10" lane="e0_0" slope="0.00"/>
    </timestep>
    <timestep time="56.00">
        <vehicle id="background.1" x="275.59" y="-1.60" angle="90.00" type="human" speed="12.99" pos="275.59" lane="e0_0" slope="0.00"/>
        <vehicle id="background.2" x="243.96" y="-1.60" angle="90.00" type="human" speed="13.40" pos="243.96" lane="e0_0" slope="0.00"/>
        <vehicle id="background.3" x="127.16" y="-1.60" angle="90.00" type="human" speed="13.71" pos="127.16" lane="e0_0" slope="0.00"/>
        <vehicle id="background.4" x="11.34" y="-1.60" angle="90.00" type="human" speed="12.48" pos="11.34" lane="e0_0" slope="0.00"/>
    </timestep>
    <timestep time="56.50">
        <vehicle id="background.1" x="282.19" y="-1.60" angle="90.00" type="human" speed="13.19" pos="282.19" lane="e0_0" slope="0.00"/>
        <vehicle id="background.2" x="250.80" y="-1.60" angle="90.00" type="human" speed="13.68" pos="250.80" lane="e0_0" slope="0.00"/>
        <vehicle id="background.3" x="134.00" y="-1.60" angle="90.00" type="human" speed="13.68" pos="134.00" lane="e0_0" slope="0.00"/>
        <vehicle id="background.4" x="17.42" y="-1.60" angle="90.00" type="human" speed="12.16" pos="17.42" lane="e0_0" slope="0.00"/>
    </timestep>
    <timestep time="57.00">
        <vehicle id="background.1" x="287.67" y="-1.60" angle="90.00" type="human" speed="10.97" pos="287.67" lane="e0_0" slope="0.00"/>
        <vehicle id="background.2" x="257.72" y="-1.60" angle="90.00" type="human" speed="13.83" pos="257.72" lane="e0_0" slope="0.00"/>
        <vehicle id="background.3" x="140.92" y="-1.60" angle="90.00" type="human" speed="13.84" pos="140.92" lane="e0_0" slope="0.00"/>
        <vehicle id="background.4" x="23.45" y="-1.60" angle="90.00" type="human" speed="12.06" pos="23.45" lane="e0_0" slope="0.00"/>
    </timestep>
    <timestep time="57.50">
        <vehicle id="background.1" x="292.14" y="-1.60" angle="90.00" type="human" speed="8.95" pos="292.14" lane="e0_0" slope="0.00"/>
        <vehicle id="background.2" x="264.41" y="-1.60" angle="90.00" type="human" speed="13.39" pos="264.41" lane="e0_0" slope="0.00"/>
        <vehicle id="background.3" x="147.85" y="-1.60" angle="90.00" type="human" speed="13.86" pos="147.85" lane="e0_0" slope="0.00"/>
        <vehicle id="background.4" x="29.47" y="-1.60" angle="90.00" type="human" speed="12.04" pos="29.47" lane="e0_0" slope="0.00"/>
    </timestep>
    <timestep time="58.00">
        <vehicle id="background.1" x="295.49" y="-1.60" angle="90.00" type="human" speed="6.70" pos="295.49" lane="e0_0" slope="0.00"/>
        <vehicle id="background.2" x="270.46" y="-1.60" angle="90.00" type="human" speed="12.09" pos="270.46" lane="e0_0" slope="0.00"/>
        <vehicle id="background.3" x="154.66" y="-1.60" angle="90.00" type="human" speed="13.62" pos="154.66" lane="e0_0" slope="0.00"/>
        <vehicle id="background.4" x="35.69" y="-1.60" angle="90.00" type="human" speed="12.45" pos="35.69" lane="e0_0" slope="0.00"/>
        <vehicle id="background.5" x="5.10" y="-1.60" angle="90.00" type="human" speed="12.68" pos="5.10" lane="e0_0" slope="0.00"/>
    </timestep>
    <timestep time="58.50">
        <vehicle id="background.1" x="297.77" y="-1.60" angle="90.00" type="human" speed="4.56" pos="297.77" lane="e0_0" slope="0.00"/>
        <vehicle id="background.2" x="275.78" y="-1.60" angle="90.00" type="human" speed="10.63" pos="275.78" lane="e0_0" slope="0.00"/>
        <vehicle id="background.3" x="161.42" y="-1.60" angle="90.00" type="human" speed="13.51" pos="161.42" lane="e0_0" slope="0.00"/>
        <vehicle id="background.4" x="41.77" y="-1.60" angle="90.00" type="human" speed="12.16" pos="41.77" lane="e0_0" slope="0.00"/>
        <vehicle id="background.5" x="11.31" y="-1.60" angle="90.00" type="human" speed="12.43" pos="11.31" lane="e0_0" slope="0.00"/>
    </timestep>
    <timestep time="59.00">
        <vehicle id="background.1" x="298.93" y="-1.60" angle="90.00" type="human" speed="2.31" pos="298.93" lane="e0_0" slope="0.00"/>