<?xml version="1.0" encoding="UTF-8"?>

<!-- generated on 2026-05-13 21:30:51 by Eclipse SUMO sumo Version 1.24.0
<sumoConfiguration xmlns:xsi="http://www.w3.org/2001/XMLSchema-instance" xsi:noNamespaceSchemaLocation="http://sumo.dlr.de/xsd/sumoConfiguration.xsd">

    <input>
        <net-file value="scenarios/simple_arterial/simple_arterial.net.xml"/>
        <route-files value="scenarios/simple_arterial/simple_arterial.rou.xml"/>
        <additional-files value="scenarios/simple_arterial/simple_arterial.tls.xml"/>
    </input>

    <output>
        <fcd-output value="runs/fcd_rlhf/episode_00016_seed_216.fcd.xml"/>
    </output>

    <time>
        <begin value="0"/>
        <end value="900"/>
        <step-length value="0.5"/>
    </time>

    <report>
        <no-warnings value="true"/>
    </report>

    <traci_server>
        <remote-port value="22810"/>
    </traci_server>

    <random_number>
        <seed value="216"/>
    </random_number>

</sumoConfiguration>
-->

<fcd-export xmlns:xsi="http://www.w3.org/2001/XMLSchema-instance" xsi:noNamespaceSchemaLocation="http://sumo.dlr.de/xsd/fcd_file.xsd">
    <timestep time="0.00"/>
    <timestep time="0.50"/>
    <timestep time="1.00"/>
    <timestep time="1.50"/>
    <timestep time="2.00"/>
    <timestep time="2.50"/>
    <timestep time="3.00"/>
    <timestep time="3.50">
        <vehicle id="background.0" x="5.10" y="-1.60" angle="90.00" type="human" speed="13.23" pos="5.10" lane="e0_0" slope="0.00"/>
    </timestep>
    <timestep time="4.00">
        <vehicle id="background.0" x="11.69" y="-1.60" angle="90.00" type="human" speed="13.18" pos="11.69" lane="e0_0" slope="0.00"/>
    </timestep>
    <timestep time="4.50">
        <vehicle id="background.0" x="18.31" y="-1.60" angle="90.00" type="human" speed="13.23" pos="18.31" lane="e0_0" slope="0.00"/>
    </timestep>
    <timestep time="5.00">
        <vehicle id="background.0" x="24.72" y="-1.60" angle="90.00" type="human" speed="12.84" pos="24.72" lane="e0_0" slope="0.00"/>
    </timestep>
    <timestep time="5.50">
        <vehicle id="background.0" x="31.27" y="-1.60" angle="90.00" type="human" speed="13.10" pos="31.27" lane="e0_0" slope="0.00"/>
    </timestep>
    <timestep time="6.00">
        <vehicle id="background.0" x="37.82" y="-1.60" angle="90.00" type="human" speed="13.10" pos="37.82" lane="e0_0" slope="0.00"/>
    </timestep>
    <timestep time="6.50">
        <vehicle id="background.0" x="44.33" y="-1.60" angle="90.00" type="human" speed="13.02" pos="44.33" lane="e0_0" slope="0.00"/>
    </timestep>
    <timestep time="7.00">
        <vehicle id="background.0" x="50.80" y="-1.60" angle="90.00" type="human" speed="12.93" pos="50.80" lane="e0_0" slope="0.00"/>
    </timestep>
    <timestep time="7.50">
        <vehicle id="background.0" x="57.39" y="-1.60" angle="90.00" type="human" speed="13.19" pos="57.39" lane="e0_0" slope="0.00"/>
    </timestep>
    <timestep time="8.00">
        <vehicle id="background.0" x="63.87" y="-1.60" angle="90.00" type="human" speed="12.97" pos="63.87" lane="e0_0" slope="0.00"/>
    </timestep>
    <timestep time="8.50">
        <vehicle id="background.0" x="70.31" y="-1.60" angle="90.00" type="human" speed="12.87" pos="70.31" lane="e0_0" slope="0.00"/>
    </timestep>
    <timestep time="9.00">
        <vehicle id="background.0" x="76.76" y="-1.60" angle="90.00" type="human" speed="12.91" pos="76.76" lane="e0_0" slope="0.00"/>
    </timestep>
    <timestep time="9.50">
        <vehicle id="background.0" x="83.13" y="-1.60" angle="90.00" type="human" speed="12.74" pos="83.13" lane="e0_0" slope="0.00"/>
    </timestep>
    <timestep time="10.00">
        <vehicle id="background.0" x="89.63" y="-1.60" angle="90.00" type="human" speed="13.00" pos="89.63" lane="e0_0" slope="0.00"/>
    </timestep>
    <timestep time="10.50">
        <vehicle id="background.0" x="96.19" y="-1.60" angle="90.00" type="human" speed="13.12" pos="96.19" lane="e0_0" slope="0.00"/>
    </timestep>
    <timestep time="11.00">
        <vehicle id="background.0" x="102.66" y="-1.60" angle="90.00" type="human" speed="12.93" pos="102.66" lane="e0_0" slope="0.00"/>
    </timestep>
    <timestep time="11.50">
        <vehicle id="background.0" x="109.14" y="-1.60" angle="90.00" type="human" speed="12.96" pos="109.14" lane="e0_0" slope="0.00"/>
    </timestep>
    <timestep time="12.00">
        <vehicle id="background.0" x="115.68" y="-1.60" angle="90.00" type="human" speed="13.09" pos="115.68" lane="e0_0" slope="0.00"/>
    </timestep>
    <timestep time="12.50">
        <vehicle id="background.0" x="122.15" y="-1.60" angle="90.00" type="human" speed="12.94" pos="122.15" lane="e0_0" slope="0.00"/>
    </timestep>
    <timestep time="13.00">
        <vehicle id="background.0" x="128.68" y="-1.60" angle="90.00" type="human" speed="13.04" pos="128.68" lane="e0_0" slope="0.00"/>
    </timestep>
    <timestep time="13.50">
        <vehicle id="background.0" x="135.14" y="-1.60" angle="90.00" type="human" speed="12.93" pos="135.14" lane="e0_0" slope="0.00"/>
    </timestep>
    <timestep time="14.00">
        <vehicle id="background.0" x="141.64" y="-1.60" angle="90.00" type="human" speed="12.99" pos="141.64" lane="e0_0" slope="0.00"/>
    </timestep>
    <timestep time="14.50">
        <vehicle id="background.0" x="148.20" y="-1.60" angle="90.00" type="human" speed="13.12" pos="148.20" lane="e0_0" slope="0.00"/>
    </timestep>
    <timestep time="15.00">
        <vehicle id="background.0" x="154.65" y="-1.60" angle="90.00" type="human" speed="12.90" pos="154.65" lane="e0_0" slope="0.00"/>
    </timestep>
    <timestep time="15.50">
        <vehicle id="background.0" x="161.17" y="-1.60" angle="90.00" type="human" speed="13.04" pos="161.17" lane="e0_0" slope="0.00"/>
    </timestep>
    <timestep time="16.00">
        <vehicle id="background.0" x="167.60" y="-1.60" angle="90.00" type="human" speed="12.85" pos="167.60" lane="e0_0" slope="0.00"/>
    </timestep>
    <timestep time="16.50">
        <vehicle id="background.0" x="174.07" y="-1.60" angle="90.00" type="human" speed="12.94" pos="174.07" lane="e0_0" slope="0.00"/>
    </timestep>
    <timestep time="17.00">
        <vehicle id="background.0" x="180.53" y="-1.60" angle="90.00" type="human" speed="12.92" pos="180.53" lane="e0_0" slope="0.00"/>
    </timestep>
    <timestep time="17.50">
        <vehicle id="background.0" x="187.05" y="-1.60" angle="90.00" type="human" speed="13.04" pos="187.05" lane="e0_0" slope="0.00"/>
    </timestep>
    <timestep time="18.00">
        <vehicle id="background.0" x="193.56" y="-1.60" angle="90.00" type="human" speed="13.03" pos="193.56" lane="e0_0" slope="0.00"/>
    </timestep>
    <timestep time="18.50">
        <vehicle id="background.0" x="199.99" y="-1.60" angle="90.00" type="human" speed="12.85" pos="199.99" lane="e0_0" slope="0.00"/>
    </timestep>
    <timestep time="19.00">
        <vehicle id="background.0" x="206.41" y="-1.60" angle="90.00" type="human" speed="12.84" pos="206.41" lane="e0_0" slope="0.00"/>
    </timestep>
    <timestep time="19.50">
        <vehicle id="background.0" x="212.95" y="-1.60" angle="90.00" type="human" speed="13.09" pos="212.95" lane="e0_0" slope="0.00"/>
    </timestep>
    <timestep time="20.00">
        <vehicle id="background.0" x="219.50" y="-1.60" angle="90.00" type="human" speed="13.10" pos="219.50" lane="e0_0" slope="0.00"/>
    </timestep>
    <timestep time="20.50">
        <vehicle id="background.0" x="226.08" y="-1.60" angle="90.00" type="human" speed="13.16" pos="226.08" lane="e0_0" slope="0.00"/>
    </timestep>
    <timestep time="21.00">
        <vehicle id="background.0" x="232.67" y="-1.60" angle="90.00" type="human" speed="13.17" pos="232.67" lane="e0_0" slope="0.00"/>
    </timestep>
    <timestep time="21.50">
        <vehicle id="background.0" x="239.13" y="-1.60" angle="90.00" type="human" speed="12.92" pos="239.13" lane="e0_0" slope="0.00"/>
    </timestep>
    <timestep time="22.00">
        <vehicle id="background.0" x="245.57" y="-1.60" angle="90.00" type="human" speed="12.88" pos="245.57" lane="e0_0" slope="0.00"/>
    </timestep>
    <timestep time="22.50">
        <vehicle id="background.0" x="252.12" y="-1.60" angle="90.00" type="human" speed="13.11" pos="252.12" lane="e0_0" slope="0.00"/>
    </timestep>
    <timestep time="23.00">
        <vehicle id="background.0" x="258.68" y="-1.60" angle="90.00" type="human" speed="13.12" pos="258.68" lane="e0_0" slope="0.00"/>
    </timestep>
    <timestep time="23.50">
        <vehicle id="background.0" x="265.10" y="-1.60" angle="90.00" type="human" speed="12.83" pos="265.10" lane="e0_0" slope="0.00"/>
    </timestep>
    <timestep time="24.00">
        <vehicle id="background.0" x="271.71" y="-1.60" angle="90.00" type="human" speed="13.23" pos="271.71" lane="e0_0" slope="0.00"/>
    </timestep>
    <timestep time="24.50">
        <vehicle id="background.0" x="278.26" y="-1.60" angle="90.00" type="human" speed="13.09" pos="278.26" lane="e0_0" slope="0.00"/>
    </timestep>
    <timestep time="25.00">
        <vehicle id="background.0" x="284.68" y="-1.60" angle="90.00" type="human" speed="12.85" pos="284.68" lane="e0_0" slope="0.00"/>
    </timestep>
    <timestep time="25.50">
        <vehicle id="background.0" x="291.29" y="-1.60" angle="90.00" type="human" speed="13.23" pos="291.29" lane="e0_0" slope="0.00"/>
    </timestep>
    <timestep time="26.00">
        <vehicle id="background.0" x="297.73" y="-1.60" angle="90.00" type="human" speed="12.87" pos="297.73" lane="e0_0" slope="0.00"/>
    </timestep>
    <timestep time="26.50">
        <vehicle id="background.0" x="304.23" y="-1.60" angle="90.00" type="human" speed="13.21" pos="4.23" lane="e1_0" slope="0.00"/>
    </timestep>
    <timestep time="27.00">
        <vehicle id="background.0" x="310.77" y="-1.60" angle="90.00" type="human" speed="13.07" pos="10.77" lane="e1_0" slope="0.00"/>
    </timestep>
    <timestep time="27.50">
        <vehicle id="background.0" x="317.15" y="-1.60" angle="90.00" type="human" speed="12.77" pos="17.15" lane="e1_0" slope="0.00"/>
    </timestep>
    <timestep time="28.00">
        <vehicle id="background.0" x="323.73" y="-1.60" angle="90.00" type="human" speed="13.16" pos="23.73" lane="e1_0" slope="0.00"/>
    </timestep>
    <timestep time="28.50">
        <vehicle id="background.0" x="330.19" y="-1.60" angle="90.00" type="human" speed="12.93" pos="30.19" lane="e1_0" slope="0.00"/>
    </timestep>
    <timestep time="29.00">
        <vehicle id="background.0" x="336.65" y="-1.60" angle="90.00" type="human" speed="12.91" pos="36.65" lane="e1_0" slope="0.00"/>
    </timestep>
    <timestep time="29.50">
        <vehicle id="background.0" x="343.21" y="-1.60" angle="90.00" type="human" speed="13.14" pos="43.21" lane="e1_0" slope="0.00"/>
    </timestep>
    <timestep time="30.00">
        <vehicle id="background.0" x="349.63" y="-1.60" angle="90.00" type="human" speed="12.83" pos="49.63" lane="e1_0" slope="0.00"/>
    </timestep>
    <timestep time="30.50"/>
    <timestep time="31.00"/>
    <timestep time="31.50"/>
    <timestep time="32.00"/>
    <timestep time="32.50"/>
    <timestep time="33.00"/>
    <timestep time="33.50"/>
    <timestep time="34.00"/>
    <timestep time="34.50"/>
    <timestep time="35.00"/>
    <timestep time="35.50"/>
    <timestep time="36.00"/>
    <timestep time="36.50"/>
    <timestep time="37.00"/>
    <timestep time="37.50"/>
    <timestep time="38.00"/>
    <timestep time="38.50"/>
    <timestep time="39.00"/>
    <timestep time="39.50"/>
    <timestep time="40.00"/>
    <timestep time="40.50"/>
    <timestep time="41.00"/>
    <timestep time="41.50"/>
    <timestep time="42.00"/>
    <timestep time="42.50"/>
    <timestep time="43.00"/>
    <timestep time="43.50"/>
    <timestep time="44.00"/>
    <timestep time="44.50"/>
    <timestep time="45.00">
        <vehicle id="background.1" x="5.10" y="-1.60" angle="90.00" type="human" speed="12.76" pos="5.10" lane="e0_0" slope="0.00"/>
    </timestep>
    <timestep time="45.50">
        <vehicle id="background.1" x="11.45" y="-1.60" angle="90.00" type="human" speed="12.69" pos="11.45" lane="e0_0" slope="0.00"/>
    </timestep>
    <timestep time="46.00">
        <vehicle id="background.1" x="17.81" y="-1.60" angle="90.00" type="human" speed="12.72" pos="17.81" lane="e0_0" slope="0.00"/>
    </timestep>
    <timestep time="46.50">
        <vehicle id="background.1" x="24.05" y="-1.60" angle="90.00" type="human" speed="12.50" pos="24.05" lane="e0_0" slope="0.00"/>
    </timestep>
    <timestep time="47.00">
        <vehicle id="background.1" x="30.38" y="-1.60" angle="90.00" type="human" speed="12.64" pos="30.38" lane="e0_0" slope="0.00"/>
    </timestep>
    <timestep time="47.50">
        <vehicle id="background.1" x="36.62" y="-1.60" angle="90.00" type="human" speed="12.48" pos="36.62" lane="e0_0" slope="0.00"/>
    </timestep>
    <timestep time="48.00">
        <vehicle id="background.1" x="42.94" y="-1.60" angle="90.00" type="human" speed="12.65" pos="42.94" lane="e0_0" slope="0.00"/>
    </timestep>
    <timestep time="48.50">
        <vehicle id="background.1" x="49.12" y="-1.60" angle="90.00" type="human" speed="12.35" pos="49.12" lane="e0_0" slope="0.00"/>
    </timestep>
    <timestep time="49.00">
        <vehicle id="background.1" x="55.27" y="-1.60" angle="90.00" type="human" speed="12.29" pos="55.27" lane="e0_0" slope="0.00"/>
    </timestep>
    <timestep time="49.50">
        <vehicle id="background.1" x="61.42" y="-1.60" angle="90.00" type="human" speed="12.31" pos="61.42" lane="e0_0" slope="0.00"/>
    </timestep>
    <timestep time="50.00">
        <vehicle id="background.1" x="67.71" y="-1.60" angle="90.00" type="human" speed="12.58" pos="67.71" lane="e0_0" slope="0.00"/>
    </timestep>
    <timestep time="50.50">
        <vehicle id="background.1" x="73.87" y="-1.60" angle="90.00" type="human" speed="12.32" pos="73.87" lane="e0_0" slope="0.00"/>
    </timestep>
    <timestep time="51.00">
        <vehicle id="background.1" x="80.11" y="-1.60" angle="90.00" type="human" speed="12.48" pos="80.11" lane="e0_0" slope="0.00"/>
    </timestep>
    <timestep time="51.50">
        <vehicle id="background.1" x="86.45" y="-1.60" angle="90.00" type="human" speed="12.69" pos="86.45" lane="e0_0" slope="0.00"/>
    </timestep>
    <timestep time="52.00">
        <vehicle id="background.1" x="92.61" y="-1.60" angle="90.00" type="human" speed="12.31" pos="92.61" lane="e0_0" slope="0.00"/>
    </timestep>
    <timestep time="52.50">
        <vehicle id="background.1" x="98.76" y="-1.60" angle="90.00" type="human" speed="12.29" pos="98.76" lane="e0_0" slope="0.00"/>
    </timestep>
    <timestep time="53.00">
        <vehicle id="background.1" x="105.09" y="-1.60" angle="90.00" type="human" speed="12.66" pos="105.09" lane="e0_0" slope="0.00"/>
    </timestep>
    <timestep time="53.50">
        <vehicle id="background.1" x="111.40" y="-1.60" angle="90.00" type="human" speed="12.62" pos="111.40" lane="e0_0" slope="0.00"/>
    </timestep>
    <timestep time="54.00">
        <vehicle id="background.1" x="117.77" y="-1.60" angle="90.00" type="human" speed="12.74" pos="117.77" lane="e0_0" slope="0.00"/>
    </timestep>
    <timestep time="54.50">
        <vehicle id="background.1" x="124.06" y="-1.60" angle="90.00" type="human" speed="12.57" pos="124.06" lane="e0_0" slope="0.00"/>
    </timestep>
    <timestep time="55.00">
        <vehicle id="background.1" x="130.36" y="-1.60" angle="90.00" type="human" speed="12.62" pos="130.36" lane="e0_0" slope="0.00"/>
    </timestep>
    <timestep time="55.50">
        <vehicle id="background.1" x="136.56" y="-1.60" angle="90.00" type="human" speed="12.39" pos="136.56" lane="e0_0" slope="0.00"/>
    </timestep>
    <timestep time="56.00">
        <vehicle id="background.1" x="142.89" y="-1.60" angle="90.00" type="human" speed="12.66" pos="142.89" lane="e0_0" slope="0.00"/>
    </timestep>
    <timestep time="56.50">
        <vehicle id="background.1" x="149.10" y="-1.60" angle="90.00" type="human" speed="12.42" pos="149.10" lane="e0_0" slope="0.00"/>
    </timestep>
    <timestep time="57.00">
        <vehicle id="background.1" x="155.40" y="-1.60" angle="90.00" type="human" speed="12.61" pos="155.40" lane="e0_0" slope="0.00"/>
    </timestep>
    <timestep time="57.50">
        <vehicle id="background.1" x="161.54" y="-1.60" angle="90.00" type="human" speed="12.27" pos="161.54" lane="e0_0" slope="0.00"/>
    </timestep>
    <timestep time="58.00">
        <vehicle id="background.1" x="167.76" y="-1.60" angle="90.00" type="human" speed="12.45" pos="167.76" lane="e0_0" slope="0.00"/>
    </timestep>
    <timestep time="58.50">
        <vehicle id="background.1" x="173.95" y="-1.60" angle="90.00" type="human" speed="12.38" pos="173.95" lane="e0_0" slope="0.00"/>
    </timestep>
    <timestep time="59.00">
        <vehicle id="background.1" x="180.26" y="-1.60" angle="90.00" type="human" speed="12.62" pos="180.26" lane="e0_0" slope="0.00"/>
    </timestep>
    <timestep time="59.50">
        <vehicle id="background.1" x="186.49" y="-1.60" angle="90.00" type="human" speed="12.47" pos="186.49" lane="e0_0" slope="0.00"/>
    </timestep>
    <timestep time="60.00">
        <vehicle id="background.1" x="192.85" y="-1.60" angle="90.00" type="human" speed="12.71" pos="192.85" lane="e0_0" slope="0.00"/>
    </timestep>
    <timestep time="60.50">
        <vehicle id="background.1" x="199.13" y="-1.60" angle="90.00" type="human" speed="12.57" pos="199.13" lane="e0_0" slope="0.00"/>
    </timestep>
    <timestep time="61.00">
        <vehicle id="background.1" x="205.46" y="-1.60" angle="90.00" type="human" speed="12.66" pos="205.46" lane="e0_0" slope="0.00"/>
    </timestep>
    <timestep time="61.50">
        <vehicle id="background.1" x="211.79" y="-1.60" angle="90.00" type="human" speed="12.67" pos="211.79" lane="e0_0" slope="0.00"/>
    </timestep>
    <timestep time="62.00">
        <vehicle id="background.1" x="218.11" y="-1.60" angle="90.00" type="human" speed="12.64" pos="218.11" lane="e0_0" slope="0.00"/>
    </timestep>
    <timestep time="62.50">
        <vehicle id="background.1" x="224.32" y="-1.60" angle="90.00" type="human" speed="12.42" pos="224.32" lane="e0_0" slope="0.00"/>
    </timestep>
    <timestep time="63.00">
        <vehicle id="background.1" x="230.66" y="-1.60" angle="90.00" type="human" speed="12.68" pos="230.66" lane="e0_0" slope="0.00"/>
        <vehicle id="background.2" x="5.10" y="-1.60" angle="90.00" type="human" speed="13.89" pos="5.10" lane="e0_0" slope="0.00"/>
    </timestep>
    <timestep time="63.50">
        <vehicle id="background.1" x="236.84" y="-1.60" angle="90.00" type="human" speed="12.35" pos="236.84" lane="e0_0" slope="0.00"/>
        <vehicle id="background.2" x="11.80" y="-1.60" angle="90.00" type="human" speed="13.40" pos="11.80" lane="e0_0" slope="0.00"/>
    </timestep>
    <timestep time="64.00">
        <vehicle id="background.1" x="243.11" y="-1.60" angle="90.00" type="human" speed="12.54" pos="243.11" lane="e0_0" slope="0.00"/>
        <vehicle id="background.2" x="18.65" y="-1.60" angle="90.00" type="human" speed="13.70" pos="18.65" lane="e0_0" slope="0.00"/>
    </timestep>
    <timestep time="64.50">
        <vehicle id="background.1" x="249.25" y="-1.60" angle="90.00" type="human" speed="12.28" pos="249.25" lane="e0_0" slope="0.00"/>
        <vehicle id="background.2" x="25.50" y="-1.60" angle="90.00" type="human" speed="13.71" pos="25.50" lane="e0_0" slope="0.00"/>
    </timestep>
    <timestep time="65.00">
        <vehicle id="background.1" x="255.45" y="-1.60" angle="90.00" type="human" speed="12.41" pos="255.45" lane="e0_0" slope="0.00"/>
        <vehicle id="background.2" x="32.33" y="-1.60" angle="90.00" type="human" speed="13.66" pos="32.33" lane="e0_0" slope="0.00"/>
    </timestep>
    <timestep time="65.50">
        <vehicle id="background.1" x="261.76" y="-1.60" angle="90.00" type="human" speed="12.63" pos="261.76" lane="e0_0" slope="0.00"/>
        <vehicle id="background.2" x="39.27" y="-1.60" angle="90.00" type="human" speed="13.89" pos="39.27" lane="e0_0" slope="0.00"/>
    </timestep>
    <timestep time="66.00">
        <vehicle id="background.1" x="268.11" y="-1.60" angle="90.00" type="human" speed="12.70" pos="268.11" lane="e0_0" slope="0.00"/>
        <vehicle id="background.2" x="46.12" y="-1.60" angle="90.00" type="human" speed="13.69" pos="46.12" lane="e0_0" slope="0.00"/>
    </timestep>
    <timestep time="66.50">
        <vehicle id="background.1" x="274.37" y="-1.60" angle="90.00" type="human" speed="12.52" pos="274.37" lane="e0_0" slope="0.00"/>
        <vehicle id="background.2" x="53.04" y="-1.60" angle="90.00" type="human" speed="13.84" pos="53.04" lane="e0_0" slope="0.00"/>
    </timestep>
    <timestep time="67.00">
        <vehicle id="background.1" x="280.54" y="-1.60" angle="90.00" type="human" speed="12.33" pos="280.54" lane="e0_0" slope="0.00"/>
        <vehicle id="background.2" x="59.75" y="-1.60" angle="90.00" type="human" speed="13.42" pos="59.75" lane="e0_0" slope="0.00"/>
    </timestep>
    <timestep time="67.50">
        <vehicle id="background.1" x="286.35" y="-1.60" angle="90.00" type="human" speed="11.64" pos="286.35" lane="e0_0" slope="0.00"/>
        <vehicle id="background.2" x="66.59" y="-1.60" angle="90.00" type="human" speed="13.68" pos="66.59" lane="e0_0" slope="0.00"/>
    </timestep>
    <timestep time="68.00">
        <vehicle id="background.1" x="291.12" y="-1.60" angle="90.00" type="human" speed="9.53" pos="291.12" lane="e0_0" slope="0.00"/>
        <vehicle id="background.2" x="73.30" y="-1.60" angle="90.00" type="human" speed="13.42" pos="73.30" lane="e0_0" slope="0.00"/>
    </timestep>
    <timestep time="68.50">
        <vehicle id="background.1" x="294.76" y="-1.60" angle="90.00" type="human" speed="7.28" pos="294.76" lane="e0_0" slope="0.00"/>
        <vehicle id="background.2" x="80.23" y="-1.60" angle="90.00" type="human" speed="13.86" pos="80.23" lane="e0_0" slope="0.00"/>
    </timestep>
    <timestep time="69.00">
        <vehicle id="background.1" x="297.30" y="-1.60" angle="90.00" type="human" speed="5.07" pos="297.30" lane="e0_0" slope="0.00"/>
        <vehicle id="background.2" x="86.97" y="-1.60" angle="90.00" type="human" speed="13.50" pos="86.97" lane="e0_0" slope="0.00"/>
    </timestep>
    <timestep time="69.50">
        <vehicle id="background.1" x="298.70" y="-1.60" angle="90.00" type="human" speed="2.82" pos="298.70" lane="e0_0" slope="0.00"/>
        <vehicle id="background.2" x="93.82" y="-1.60" angle="90.00" type="human" speed="13.68" pos="93.82" lane="e0_0" slope="0.00"/>
    </timestep>
    <timestep time="70.00">
        <vehicle id="background.1" x="298.99" y="-1.60" angle="90.00" type="human" speed="0.57" pos="298.99" lane="e0_0" slope="0.00"/>
        <vehicle id="background.2" x="100.73" y="-1.60" angle="90.00" type="human" speed="13.83" pos="100.73" lane="e0_0" slope="0.00"/>
    </timestep>
    <timestep time="70.50">
        <vehicle id="background.1" x="299.00" y="-1.60" angle="90.00" type="human" speed="0.02" pos="299.00" lane="e0_0" slope="0.00"/>
        <vehicle id="background.2" x="107.46" y="-1.60" angle="90.00" type="human" speed="13.46" pos="107.46" lane="e0_0" slope="0.00"/>
    </timestep>
    <timestep time="71.00">
        <vehicle id="background.1" x="299.00" y="-1.60" angle="90.00" type="human" speed="0.00" pos="299.00" lane="e0_0" slope="0.00"/>
        <vehicle id="background.2" x="114.37" y="-1.60" angle="90.00" type="human" speed="13.83" pos="114.37" lane="e0_0" slope="0.00"/>
    </timestep>
    <timestep time="71.50">
        <vehicle id="background.1" x="299.00" y="-1.60" angle="90.00" type="human" speed="0.00" pos="299.00" lane="e0_0" slope="0.00"/>
        <vehicle id="background.2" x="121.26" y="-1.60" angle="90.00" type="human" speed="13.77" pos="121.26" lane="e0_0" slope="0.00"/>
    </timestep>
    <timestep time="72.00">
        <vehicle id="background.1" x="299.00" y="-1.60" angle="90.00" type="human" speed="0.00" pos="299.00" lane="e0_0" slope="0.00"/>
        <vehicle id="background.2" x="128.02" y="-1.60" angle="90.00" type="human" speed="13.53" pos="128.02" lane="e0_0" slope="0.00"/>
    </timestep>
    <timestep time="72.50">
        <vehicle id="background.1" x="299.00" y="-1.60" angle="90.00" type="human" speed="0.00" pos="299.00" lane="e0_0" slope="0.00"/>
        <vehicle id="background.2" x="134.93" y="-1.60" angle="90.00" type="human" speed="13.83" pos="134.93" lane="e0_0" slope="0.00"/>
    </timestep>
    <timestep time="73.00">
        <vehicle id="background.1" x="299.00" y="-1.60" angle="90.00" type="human" speed="0.00" pos="299.00" lane="e0_0" slope="0.00"/>
        <vehicle id="background.2" x="141.71" y="-1.60" angle="90.00" type="human" speed="13.55" pos="141.71" lane="e0_0" slope="0.00"/>
    </timestep>
    <timestep time="73.50">
        <vehicle id="background.1" x="299.00" y="-1.60" angle="90.00" type="human" speed="0.00" pos="299.00" lane="e0_0" slope="0.00"/>
        <vehicle id="background.2" x="148.46" y="-1.60" angle="90.00" type="human" speed="13.49" pos="148.46" lane="e0_0" slope="0.00"/>
    </timestep>
    <timestep time="74.00">
        <vehicle id="background.1" x="299.00" y="-1.60" angle="90.00" type="human" speed="0.00" pos="299.00" lane="e0_0" slope="0.00"/>
        <vehicle id="background.2" x="155.32" y="-1.60" angle="90.00" type="human" speed="13.72" pos="155.32" lane="e0_0" slope="0.00"/>
    </timestep>
    <timestep time="74.50">
        <vehicle id="background.1" x="299.00" y="-1.60" angle="90.00" type="human" speed="0.00" pos="299.00" lane="e0_0" slope="0.00"/>
        <vehicle id="background.2" x="162.22" y="-1.60" angle="90.00" type="human" speed="13.80" pos="162.22" lane="e0_0" slope="0.00"/>
    </timestep>
    <timestep time="75.00">
        <vehicle id="background.1" x="299.00" y="-1.60" angle="90.00" type="human" speed="0.00" pos="299.00" lane="e0_0" slope="0.00"/>
        <vehicle id="background.2" x="169.00" y="-1.60" angle="90.00" type="human" speed="13.56" pos="169.00" lane="e0_0" slope="0.00"/>
    </timestep>
    <timestep time="75.50">
        <vehicle id="background.1" x="299.00" y="-1.60" angle="90.00" type="human" speed="0.00" pos="299.00" lane="e0_0" slope="0.00"/>
        <vehicle id="background.2" x="175.79" y="-1.60" angle="90.00" type="human" speed="13.58" pos="175.79" lane="e0_0" slope="0.00"/>
    </timestep>
    <timestep time="76.00">
        <vehicle id="background.1" x="299.00" y="-1.60" angle="90.00" type="human" speed="0.00" pos="299.00" lane="e0_0" slope="0.00"/>
        <vehicle id="background.2" x="182.72" y="-1.60" angle="90.00" type="human" speed="13.86" pos="182.72" lane="e0_0" slope="0.00"/>
    </timestep>
    <timestep time="76.50">
        <vehicle id="background.1" x="299.00" y="-1.60" angle="90.00" type="human" speed="0.00" pos="299.00" lane="e0_0" slope="0.00"/>
        <vehicle id="background.2" x="189.64" y="-1.60" angle="90.00" type="human" speed="13.85" pos="189.64" lane="e0_0" slope="0.00"/>
    </timestep>
    <timestep time="77.00">
        <vehicle id="background.1" x="299.00" y="-1.60" angle="90.00" type="human" speed="0.00" pos="299.00" lane="e0_0" slope="0.00"/>
        <vehicle id="background.2" x="196.42" y="-1.60" angle="90.00" type="human" speed="13.56" pos="196.42" lane="e0_0" slope="0.00"/>
    </timestep>
    <timestep time="77.50">
        <vehicle id="background.1" x="299.00" y="-1.60" angle="90.00" type="human" speed="0.00" pos="299.00" lane="e0_0" slope="0.00"/>
        <vehicle id="background.2" x="203.17" y="-1.60" angle="90.00" type="human" speed="13.50" pos="203.17" lane="e0_0" slope="0.00"/>
    </timestep>
    <timestep time="78.00">
        <vehicle id="background.1" x="299.00" y="-1.60" angle="90.00" type="human" speed="0.00" pos="299.00" lane="e0_0" slope="0.00"/>
        <vehicle id="background.2" x="210.07" y="-1.60" angle="90.00" type="human" speed="13.81" pos="210.07" lane="e0_0" slope="0.00"/>
    </timestep>
    <timestep time="78.50">
        <vehicle id="background.1" x="299.00" y="-1.60" angle="90.00" type="human" speed="0.00" pos="299.00" lane="e0_0" slope="0.00"/>
        <vehicle id="background.2" x="216.95" y="-1.60" angle="90.00" type="human" speed="13.75" pos="216.95" lane="e0_0" slope="0.00"/>
    </timestep>
    <timestep time="79.00">
        <vehicle id="background.1" x="299.00" y="-1.60" angle="90.00" type="human" speed="0.00" pos="299.00" lane="e0_0" slope="0.00"/>
        <vehicle id="background.2" x="223.75" y="-1.60" angle="90.00" type="human" speed="13.59" pos="223.75" lane="e0_0" slope="0.00"/>
    </timestep>
    <timestep time="79.50">
        <vehicle id="background.1" x="299.00" y="-1.60" angle="90.00" type="human" speed="0.00" pos="299.00" lane="e0_0" slope="0.00"/>
        <vehicle id="background.2" x="230.45" y="-1.60" angle="90.00" type="human" speed="13.41" pos="230.45" lane="e0_0" slope="0.00"/>
    </timestep>
    <timestep time="80.00">
        <vehicle id="background.1" x="299.00" y="-1.60" angle="90.00" type="human" speed="0.00" pos="299.00" lane="e0_0" slope="0.00"/>
        <vehicle id="background.2" x="237.20" y="-1.60" angle="90.00" type="human" speed="13.49" pos="237.20" lane="e0_0" slope="0.00"/>
    </timestep>
    <timestep time="80.50">
        <vehicle id="background.1" x="299.00" y="-1.60" angle="90.00" type="human" speed="0.00" pos="299.00" lane="e0_0" slope="0.00"/>
        <vehicle id="background.2" x="243.96" y="-1.60" angle="90.00" type="human" speed="13.53" pos="243.96" lane="e0_0" slope="0.00"/>
    </timestep>
    <timestep time="81.00">
        <vehicle id="background.1" x="299.00" y="-1.60" angle="90.00" type="human" speed="0.00" pos="299.00" lane="e0_0" slope="0.00"/>