<?xml version="1.0" encoding="UTF-8"?>

<!-- generated on 2026-05-14 17:05:01 by Eclipse SUMO sumo Version 1.24.0
<sumoConfiguration xmlns:xsi="http://www.w3.org/2001/XMLSchema-instance" xsi:noNamespaceSchemaLocation="http://sumo.dlr.de/xsd/sumoConfiguration.xsd">

    <input>
        <net-file value="scenarios/simple_arterial/simple_arterial.net.xml"/>
        <route-files value="scenarios/simple_arterial/simple_arterial.rou.xml"/>
        <additional-files value="scenarios/simple_arterial/simple_arterial.tls.xml"/>
    </input>

    <output>
        <fcd-output value="runs/fcd_expert_default/episode_00064_seed_106.fcd.xml"/>
    </output>

    <time>
        <begin value="0"/>
        <end value="900"/>
        <step-length value="0.5"/>
    </time>

    <report>
        <no-warnings value="true"/>
    </report>

    <traci_server>
        <remote-port value="24542"/>
    </traci_server>

    <random_number>
        <seed value="106"/>
    </random_number>

</sumoConfiguration>
-->

<fcd-export xmlns:xsi="http://www.w3.org/2001/XMLSchema-instance" xsi:noNamespaceSchemaLocation="http://sumo.dlr.de/xsd/fcd_file.xsd">
    <timestep time="0.00">
        <vehicle id="background.0" x="5.10" y="-1.60" angle="90.00" type="human" speed="13.89" pos="5.10" lane="e0_0" slope="0.00"/>
    </timestep>
    <timestep time="0.50">
        <vehicle id="background.0" x="12.00" y="-1.60" angle="90.00" type="human" speed="13.81" pos="12.00" lane="e0_0" slope="0.00"/>
    </timestep>
    <timestep time="1.00">
        <vehicle id="background.0" x="18.70" y="-1.60" angle="90.00" type="human" speed="13.39" pos="18.70" lane="e0_0" slope="0.00"/>
    </timestep>
    <timestep time="1.50">
        <vehicle id="background.0" x="25.46" y="-1.60" angle="90.00" type="human" speed="13.51" pos="25.46" lane="e0_0" slope="0.00"/>
    </timestep>
    <timestep time="2.00">
        <vehicle id="background.0" x="32.27" y="-1.60" angle="90.00" type="human" speed="13.62" pos="32.27" lane="e0_0" slope="0.00"/>
    </timestep>
    <timestep time="2.50">
        <vehicle id="background.0" x="39.07" y="-1.60" angle="90.00" type="human" speed="13.61" pos="39.07" lane="e0_0" slope="0.00"/>
    </timestep>
    <timestep time="3.00">
        <vehicle id="background.0" x="46.00" y="-1.60" angle="90.00" type="human" speed="13.85" pos="46.00" lane="e0_0" slope="0.00"/>
    </timestep>
    <timestep time="3.50">
        <vehicle id="background.0" x="52.89" y="-1.60" angle="90.00" type="human" speed="13.78" pos="52.89" lane="e0_0" slope="0.00"/>
    </timestep>
    <timestep time="4.00">
        <vehicle id="background.0" x="59.61" y="-1.60" angle="90.00" type="human" speed="13.44" pos="59.61" lane="e0_0" slope="0.00"/>
    </timestep>
    <timestep time="4.50">
        <vehicle id="background.0" x="66.47" y="-1.60" angle="90.00" type="human" speed="13.72" pos="66.47" lane="e0_0" slope="0.00"/>
    </timestep>
    <timestep time="5.00">
        <vehicle id="background.0" x="73.32" y="-1.60" angle="90.00" type="human" speed="13.70" pos="73.32" lane="e0_0" slope="0.00"/>
    </timestep>
    <timestep time="5.50">
        <vehicle id="background.0" x="80.22" y="-1.60" angle="90.00" type="human" speed="13.81" pos="80.22" lane="e0_0" slope="0.00"/>
    </timestep>
    <timestep time="6.00">
        <vehicle id="background.0" x="87.16" y="-1.60" angle="90.00" type="human" speed="13.88" pos="87.16" lane="e0_0" slope="0.00"/>
    </timestep>
    <timestep time="6.50">
        <vehicle id="background.0" x="94.02" y="-1.60" angle="90.00" type="human" speed="13.72" pos="94.02" lane="e0_0" slope="0.00"/>
        <vehicle id="background.1" x="5.10" y="-1.60" angle="90.00" type="human" speed="9.68" pos="5.10" lane="e0_0" slope="0.00"/>
    </timestep>
    <timestep time="7.00">
        <vehicle id="background.0" x="100.79" y="-1.60" angle="90.00" type="human" speed="13.54" pos="100.79" lane="e0_0" slope="0.00"/>
        <vehicle id="background.1" x="9.93" y="-1.60" angle="90.00" type="human" speed="9.66" pos="9.93" lane="e0_0" slope="0.00"/>
    </timestep>
    <timestep time="7.50">
        <vehicle id="background.0" x="107.65" y="-1.60" angle="90.00" type="human" speed="13.71" pos="107.65" lane="e0_0" slope="0.00"/>
        <vehicle id="background.1" x="14.71" y="-1.60" angle="90.00" type="human" speed="9.56" pos="14.71" lane="e0_0" slope="0.00"/>
    </timestep>
    <timestep time="8.00">
        <vehicle id="background.0" x="114.42" y="-1.60" angle="90.00" type="human" speed="13.54" pos="114.42" lane="e0_0" slope="0.00"/>
        <vehicle id="background.1" x="19.40" y="-1.60" angle="90.00" type="human" speed="9.38" pos="19.40" lane="e0_0" slope="0.00"/>
    </timestep>
    <timestep time="8.50">
        <vehicle id="background.0" x="121.23" y="-1.60" angle="90.00" type="human" speed="13.62" pos="121.23" lane="e0_0" slope="0.00"/>
        <vehicle id="background.1" x="24.00" y="-1.60" angle="90.00" type="human" speed="9.20" pos="24.00" lane="e0_0" slope="0.00"/>
    </timestep>
    <timestep time="9.00">
        <vehicle id="background.0" x="128.08" y="-1.60" angle="90.00" type="human" speed="13.70" pos="128.08" lane="e0_0" slope="0.00"/>
        <vehicle id="background.1" x="28.67" y="-1.60" angle="90.00" type="human" speed="9.33" pos="28.67" lane="e0_0" slope="0.00"/>
    </timestep>
    <timestep time="9.50">
        <vehicle id="background.0" x="135.01" y="-1.60" angle="90.00" type="human" speed="13.86" pos="135.01" lane="e0_0" slope="0.00"/>
        <vehicle id="background.1" x="33.33" y="-1.60" angle="90.00" type="human" speed="9.32" pos="33.33" lane="e0_0" slope="0.00"/>
    </timestep>
    <timestep time="10.00">
        <vehicle id="background.0" x="141.78" y="-1.60" angle="90.00" type="human" speed="13.53" pos="141.78" lane="e0_0" slope="0.00"/>
        <vehicle id="background.1" x="38.12" y="-1.60" angle="90.00" type="human" speed="9.58" pos="38.12" lane="e0_0" slope="0.00"/>
    </timestep>
    <timestep time="10.50">
        <vehicle id="background.0" x="148.69" y="-1.60" angle="90.00" type="human" speed="13.83" pos="148.69" lane="e0_0" slope="0.00"/>
        <vehicle id="background.1" x="42.84" y="-1.60" angle="90.00" type="human" speed="9.43" pos="42.84" lane="e0_0" slope="0.00"/>
    </timestep>
    <timestep time="11.00">
        <vehicle id="background.0" x="155.59" y="-1.60" angle="90.00" type="human" speed="13.79" pos="155.59" lane="e0_0" slope="0.00"/>
        <vehicle id="background.1" x="47.63" y="-1.60" angle="90.00" type="human" speed="9.58" pos="47.63" lane="e0_0" slope="0.00"/>
    </timestep>
    <timestep time="11.50">
        <vehicle id="background.0" x="162.34" y="-1.60" angle="90.00" type="human" speed="13.51" pos="162.34" lane="e0_0" slope="0.00"/>
        <vehicle id="background.1" x="52.27" y="-1.60" angle="90.00" type="human" speed="9.29" pos="52.27" lane="e0_0" slope="0.00"/>
    </timestep>
    <timestep time="12.00">
        <vehicle id="background.0" x="169.08" y="-1.60" angle="90.00" type="human" speed="13.48" pos="169.08" lane="e0_0" slope="0.00"/>
        <vehicle id="background.1" x="56.91" y="-1.60" angle="90.00" type="human" speed="9.27" pos="56.91" lane="e0_0" slope="0.00"/>
    </timestep>
    <timestep time="12.50">
        <vehicle id="background.0" x="175.84" y="-1.60" angle="90.00" type="human" speed="13.52" pos="175.84" lane="e0_0" slope="0.00"/>
        <vehicle id="background.1" x="61.71" y="-1.60" angle="90.00" type="human" speed="9.62" pos="61.71" lane="e0_0" slope="0.00"/>
    </timestep>
    <timestep time="13.00">
        <vehicle id="background.0" x="182.60" y="-1.60" angle="90.00" type="human" speed="13.52" pos="182.60" lane="e0_0" slope="0.00"/>
        <vehicle id="background.1" x="66.32" y="-1.60" angle="90.00" type="human" speed="9.22" pos="66.32" lane="e0_0" slope="0.00"/>
    </timestep>
    <timestep time="13.50">
        <vehicle id="background.0" x="189.54" y="-1.60" angle="90.00" type="human" speed="13.87" pos="189.54" lane="e0_0" slope="0.00"/>
        <vehicle id="background.1" x="71.14" y="-1.60" angle="90.00" type="human" speed="9.64" pos="71.14" lane="e0_0" slope="0.00"/>
    </timestep>
    <timestep time="14.00">
        <vehicle id="background.0" x="196.33" y="-1.60" angle="90.00" type="human" speed="13.58" pos="196.33" lane="e0_0" slope="0.00"/>
        <vehicle id="background.1" x="75.85" y="-1.60" angle="90.00" type="human" speed="9.41" pos="75.85" lane="e0_0" slope="0.00"/>
    </timestep>
    <timestep time="14.50">
        <vehicle id="background.0" x="203.11" y="-1.60" angle="90.00" type="human" speed="13.57" pos="203.11" lane="e0_0" slope="0.00"/>
        <vehicle id="background.1" x="80.67" y="-1.60" angle="90.00" type="human" speed="9.64" pos="80.67" lane="e0_0" slope="0.00"/>
    </timestep>
    <timestep time="15.00">
        <vehicle id="background.0" x="210.03" y="-1.60" angle="90.00" type="human" speed="13.84" pos="210.03" lane="e0_0" slope="0.00"/>
        <vehicle id="background.1" x="85.39" y="-1.60" angle="90.00" type="human" speed="9.45" pos="85.39" lane="e0_0" slope="0.00"/>
    </timestep>
    <timestep time="15.50">
        <vehicle id="background.0" x="216.90" y="-1.60" angle="90.00" type="human" speed="13.73" pos="216.90" lane="e0_0" slope="0.00"/>
        <vehicle id="background.1" x="90.14" y="-1.60" angle="90.00" type="human" speed="9.49" pos="90.14" lane="e0_0" slope="0.00"/>
    </timestep>
    <timestep time="16.00">
        <vehicle id="background.0" x="223.73" y="-1.60" angle="90.00" type="human" speed="13.67" pos="223.73" lane="e0_0" slope="0.00"/>
        <vehicle id="background.1" x="94.86" y="-1.60" angle="90.00" type="human" speed="9.44" pos="94.86" lane="e0_0" slope="0.00"/>
    </timestep>
    <timestep time="16.50">
        <vehicle id="background.0" x="230.60" y="-1.60" angle="90.00" type="human" speed="13.74" pos="230.60" lane="e0_0" slope="0.00"/>
        <vehicle id="background.1" x="99.58" y="-1.60" angle="90.00" type="human" speed="9.45" pos="99.58" lane="e0_0" slope="0.00"/>
    </timestep>
    <timestep time="17.00">
        <vehicle id="background.0" x="237.47" y="-1.60" angle="90.00" type="human" speed="13.73" pos="237.47" lane="e0_0" slope="0.00"/>
        <vehicle id="background.1" x="104.36" y="-1.60" angle="90.00" type="human" speed="9.55" pos="104.36" lane="e0_0" slope="0.00"/>
    </timestep>
    <timestep time="17.50">
        <vehicle id="background.0" x="244.33" y="-1.60" angle="90.00" type="human" speed="13.73" pos="244.33" lane="e0_0" slope="0.00"/>
        <vehicle id="background.1" x="108.95" y="-1.60" angle="90.00" type="human" speed="9.18" pos="108.95" lane="e0_0" slope="0.00"/>
    </timestep>
    <timestep time="18.00">
        <vehicle id="background.0" x="251.21" y="-1.60" angle="90.00" type="human" speed="13.75" pos="251.21" lane="e0_0" slope="0.00"/>
        <vehicle id="background.1" x="113.70" y="-1.60" angle="90.00" type="human" speed="9.49" pos="113.70" lane="e0_0" slope="0.00"/>
    </timestep>
    <timestep time="18.50">
        <vehicle id="background.0" x="257.92" y="-1.60" angle="90.00" type="human" speed="13.43" pos="257.92" lane="e0_0" slope="0.00"/>
        <vehicle id="background.1" x="118.43" y="-1.60" angle="90.00" type="human" speed="9.47" pos="118.43" lane="e0_0" slope="0.00"/>
    </timestep>
    <timestep time="19.00">
        <vehicle id="background.0" x="264.64" y="-1.60" angle="90.00" type="human" speed="13.43" pos="264.64" lane="e0_0" slope="0.00"/>
        <vehicle id="background.1" x="123.04" y="-1.60" angle="90.00" type="human" speed="9.22" pos="123.04" lane="e0_0" slope="0.00"/>
    </timestep>
    <timestep time="19.50">
        <vehicle id="background.0" x="271.49" y="-1.60" angle="90.00" type="human" speed="13.70" pos="271.49" lane="e0_0" slope="0.00"/>
        <vehicle id="background.1" x="127.65" y="-1.60" angle="90.00" type="human" speed="9.22" pos="127.65" lane="e0_0" slope="0.00"/>
    </timestep>
    <timestep time="20.00">
        <vehicle id="background.0" x="278.31" y="-1.60" angle="90.00" type="human" speed="13.64" pos="278.31" lane="e0_0" slope="0.00"/>
        <vehicle id="background.1" x="132.25" y="-1.60" angle="90.00" type="human" speed="9.20" pos="132.25" lane="e0_0" slope="0.00"/>
    </timestep>
    <timestep time="20.50">
        <vehicle id="background.0" x="285.05" y="-1.60" angle="90.00" type="human" speed="13.49" pos="285.05" lane="e0_0" slope="0.00"/>
        <vehicle id="background.1" x="136.96" y="-1.60" angle="90.00" type="human" speed="9.42" pos="136.96" lane="e0_0" slope="0.00"/>
    </timestep>
    <timestep time="21.00">
        <vehicle id="background.0" x="291.98" y="-1.60" angle="90.00" type="human" speed="13.85" pos="291.98" lane="e0_0" slope="0.00"/>
        <vehicle id="background.1" x="141.58" y="-1.60" angle="90.00" type="human" speed="9.23" pos="141.58" lane="e0_0" slope="0.00"/>
    </timestep>
    <timestep time="21.50">
        <vehicle id="background.0" x="298.81" y="-1.60" angle="90.00" type="human" speed="13.66" pos="298.81" lane="e0_0" slope="0.00"/>
        <vehicle id="background.1" x="146.29" y="-1.60" angle="90.00" type="human" speed="9.42" pos="146.29" lane="e0_0" slope="0.00"/>
    </timestep>
    <timestep time="22.00">
        <vehicle id="background.0" x="305.50" y="-1.60" angle="90.00" type="human" speed="13.57" pos="5.50" lane="e1_0" slope="0.00"/>
        <vehicle id="background.1" x="150.98" y="-1.60" angle="90.00" type="human" speed="9.38" pos="150.98" lane="e0_0" slope="0.00"/>
    </timestep>
    <timestep time="22.50">
        <vehicle id="background.0" x="312.38" y="-1.60" angle="90.00" type="human" speed="13.77" pos="12.38" lane="e1_0" slope="0.00"/>
        <vehicle id="background.1" x="155.71" y="-1.60" angle="90.00" type="human" speed="9.47" pos="155.71" lane="e0_0" slope="0.00"/>
    </timestep>
    <timestep time="23.00">
        <vehicle id="background.0" x="319.10" y="-1.60" angle="90.00" type="human" speed="13.44" pos="19.10" lane="e1_0" slope="0.00"/>
        <vehicle id="background.1" x="160.38" y="-1.60" angle="90.00" type="human" speed="9.33" pos="160.38" lane="e0_0" slope="0.00"/>
    </timestep>
    <timestep time="23.50">
        <vehicle id="background.0" x="326.04" y="-1.60" angle="90.00" type="human" speed="13.87" pos="26.04" lane="e1_0" slope="0.00"/>
        <vehicle id="background.1" x="165.19" y="-1.60" angle="90.00" type="human" speed="9.62" pos="165.19" lane="e0_0" slope="0.00"/>
    </timestep>
    <timestep time="24.00">
        <vehicle id="background.0" x="332.85" y="-1.60" angle="90.00" type="human" speed="13.63" pos="32.85" lane="e1_0" slope="0.00"/>
        <vehicle id="background.1" x="169.78" y="-1.60" angle="90.00" type="human" speed="9.19" pos="169.78" lane="e0_0" slope="0.00"/>
    </timestep>
    <timestep time="24.50">
        <vehicle id="background.0" x="339.65" y="-1.60" angle="90.00" type="human" speed="13.60" pos="39.65" lane="e1_0" slope="0.00"/>
        <vehicle id="background.1" x="174.41" y="-1.60" angle="90.00" type="human" speed="9.26" pos="174.41" lane="e0_0" slope="0.00"/>
    </timestep>
    <timestep time="25.00">
        <vehicle id="background.0" x="346.45" y="-1.60" angle="90.00" type="human" speed="13.58" pos="46.45" lane="e1_0" slope="0.00"/>
        <vehicle id="background.1" x="179.17" y="-1.60" angle="90.00" type="human" speed="9.52" pos="179.17" lane="e0_0" slope="0.00"/>
    </timestep>
    <timestep time="25.50">
        <vehicle id="background.1" x="183.82" y="-1.60" angle="90.00" type="human" speed="9.30" pos="183.82" lane="e0_0" slope="0.00"/>
    </timestep>
    <timestep time="26.00">
        <vehicle id="background.1" x="188.49" y="-1.60" angle="90.00" type="human" speed="9.34" pos="188.49" lane="e0_0" slope="0.00"/>
    </timestep>
    <timestep time="26.50">
        <vehicle id="background.1" x="193.24" y="-1.60" angle="90.00" type="human" speed="9.50" pos="193.24" lane="e0_0" slope="0.00"/>
    </timestep>
    <timestep time="27.00">
        <vehicle id="background.1" x="197.85" y="-1.60" angle="90.00" type="human" speed="9.21" pos="197.85" lane="e0_0" slope="0.00"/>
    </timestep>
    <timestep time="27.50">
        <vehicle id="background.1" x="202.48" y="-1.60" angle="90.00" type="human" speed="9.27" pos="202.48" lane="e0_0" slope="0.00"/>
    </timestep>
    <timestep time="28.00">
        <vehicle id="background.1" x="207.31" y="-1.60" angle="90.00" type="human" speed="9.66" pos="207.31" lane="e0_0" slope="0.00"/>
    </timestep>
    <timestep time="28.50">
        <vehicle id="background.1" x="211.98" y="-1.60" angle="90.00" type="human" speed="9.34" pos="211.98" lane="e0_0" slope="0.00"/>
    </timestep>
    <timestep time="29.00">
        <vehicle id="background.1" x="216.68" y="-1.60" angle="90.00" type="human" speed="9.41" pos="216.68" lane="e0_0" slope="0.00"/>
    </timestep>
    <timestep time="29.50">
        <vehicle id="background.1" x="221.29" y="-1.60" angle="90.00" type="human" speed="9.22" pos="221.29" lane="e0_0" slope="0.00"/>
    </timestep>
    <timestep time="30.00">
        <vehicle id="background.1" x="225.96" y="-1.60" angle="90.00" type="human" speed="9.33" pos="225.96" lane="e0_0" slope="0.00"/>
    </timestep>
    <timestep time="30.50">
        <vehicle id="background.1" x="230.55" y="-1.60" angle="90.00" type="human" speed="9.19" pos="230.55" lane="e0_0" slope="0.00"/>
    </timestep>
    <timestep time="31.00">
        <vehicle id="background.1" x="235.33" y="-1.60" angle="90.00" type="human" speed="9.55" pos="235.33" lane="e0_0" slope="0.00"/>
    </timestep>
    <timestep time="31.50">
        <vehicle id="background.1" x="240.02" y="-1.60" angle="90.00" type="human" speed="9.39" pos="240.02" lane="e0_0" slope="0.00"/>
    </timestep>
    <timestep time="32.00">
        <vehicle id="background.1" x="244.64" y="-1.60" angle="90.00" type="human" speed="9.23" pos="244.64" lane="e0_0" slope="0.00"/>
    </timestep>
    <timestep time="32.50">
        <vehicle id="background.1" x="249.47" y="-1.60" angle="90.00" type="human" speed="9.66" pos="249.47" lane="e0_0" slope="0.00"/>
    </timestep>
    <timestep time="33.00">
        <vehicle id="background.1" x="254.22" y="-1.60" angle="90.00" type="human" speed="9.50" pos="254.22" lane="e0_0" slope="0.00"/>
    </timestep>
    <timestep time="33.50">
        <vehicle id="background.1" x="258.85" y="-1.60" angle="90.00" type="human" speed="9.26" pos="258.85" lane="e0_0" slope="0.00"/>
    </timestep>
    <timestep time="34.00">
        <vehicle id="background.1" x="263.46" y="-1.60" angle="90.00" type="human" speed="9.21" pos="263.46" lane="e0_0" slope="0.00"/>
    </timestep>
    <timestep time="34.50">
        <vehicle id="background.1" x="268.21" y="-1.60" angle="90.00" type="human" speed="9.51" pos="268.21" lane="e0_0" slope="0.00"/>
    </timestep>
    <timestep time="35.00">
        <vehicle id="background.1" x="272.90" y="-1.60" angle="90.00" type="human" speed="9.37" pos="272.90" lane="e0_0" slope="0.00"/>
    </timestep>
    <timestep time="35.50">
        <vehicle id="background.1" x="277.67" y="-1.60" angle="90.00" type="human" speed="9.55" pos="277.67" lane="e0_0" slope="0.00"/>
    </timestep>
    <timestep time="36.00">
        <vehicle id="background.1" x="282.35" y="-1.60" angle="90.00" type="human" speed="9.35" pos="282.35" lane="e0_0" slope="0.00"/>
    </timestep>
    <timestep time="36.50">
        <vehicle id="background.1" x="286.98" y="-1.60" angle="90.00" type="human" speed="9.27" pos="286.98" lane="e0_0" slope="0.00"/>
    </timestep>
    <timestep time="37.00">
        <vehicle id="background.1" x="291.80" y="-1.60" angle="90.00" type="human" speed="9.64" pos="291.80" lane="e0_0" slope="0.00"/>
    </timestep>
    <timestep time="37.50">
        <vehicle id="background.1" x="296.52" y="-1.60" angle="90.00" type="human" speed="9.45" pos="296.52" lane="e0_0" slope="0.00"/>
    </timestep>
    <timestep time="38.00">
        <vehicle id="background.1" x="301.08" y="-1.60" angle="90.00" type="human" speed="9.32" pos="1.08" lane="e1_0" slope="0.00"/>
    </timestep>
    <timestep time="38.50">
        <vehicle id="background.1" x="305.88" y="-1.60" angle="90.00" type="human" speed="9.58" pos="5.88" lane="e1_0" slope="0.00"/>
    </timestep>
    <timestep time="39.00">
        <vehicle id="background.1" x="310.55" y="-1.60" angle="90.00" type="human" speed="9.34" pos="10.55" lane="e1_0" slope="0.00"/>
    </timestep>
    <timestep time="39.50">
        <vehicle id="background.1" x="315.31" y="-1.60" angle="90.00" type="human" speed="9.52" pos="15.31" lane="e1_0" slope="0.00"/>
    </timestep>
    <timestep time="40.00">
        <vehicle id="background.1" x="319.98" y="-1.60" angle="90.00" type="human" speed="9.34" pos="19.98" lane="e1_0" slope="0.00"/>
    </timestep>
    <timestep time="40.50">
        <vehicle id="background.1" x="324.75" y="-1.60" angle="90.00" type="human" speed="9.55" pos="24.75" lane="e1_0" slope="0.00"/>
    </timestep>
    <timestep time="41.00">
        <vehicle id="background.1" x="329.38" y="-1.60" angle="90.00" type="human" speed="9.25" pos="29.38" lane="e1_0" slope="0.00"/>
    </timestep>
    <timestep time="41.50">
        <vehicle id="background.1" x="334.21" y="-1.60" angle="90.00" type="human" speed="9.67" pos="34.21" lane="e1_0" slope="0.00"/>
    </timestep>
    <timestep time="42.00">
        <vehicle id="background.1" x="339.02" y="-1.60" angle="90.00" type="human" speed="9.62" pos="39.02" lane="e1_0" slope="0.00"/>
    </timestep>
    <timestep time="42.50">
        <vehicle id="background.1" x="343.66" y="-1.60" angle="90.00" type="human" speed="9.28" pos="43.66" lane="e1_0" slope="0.00"/>
    </timestep>
    <timestep time="43.00">
        <vehicle id="background.1" x="348.35" y="-1.60" angle="90.00" type="human" speed="9.39" pos="48.35" lane="e1_0" slope="0.00"/>
    </timestep>
    <timestep time="43.50"/>
    <timestep time="44.00"/>
    <timestep time="44.50"/>
    <timestep time="45.00"/>
    <timestep time="45.50"/>
    <timestep time="46.00"/>
    <timestep time="46.50"/>
    <timestep time="47.00"/>
    <timestep time="47.50"/>
    <timestep time="48.00"/>
    <timestep time="48.50"/>
    <timestep time="49.00"/>
    <timestep time="49.50"/>
    <timestep time="50.00"/>
    <timestep time="50.50"/>
    <timestep time="51.00"/>
    <timestep time="51.50"/>
    <timestep time="52.00"/>
    <timestep time="52.50"/>
    <timestep time="53.00"/>
    <timestep time="53.50"/>
    <timestep time="54.00"/>
    <timestep time="54.50"/>
    <timestep time="55.00"/>
    <timestep time="55.50"/>
    <timestep time="56.00"/>
    <timestep time="56.50"/>
    <timestep time="57.00"/>
    <timestep time="57.50"/>
    <timestep time="58.00"/>
    <timestep time="58.50"/>
    <timestep time="59.00"/>
    <timestep time="59.50"/>
    <timestep time="60.00"/>
    <timestep time="60.50"/>
    <timestep time="61.00"/>
    <timestep time="61.50">
        <vehicle id="background.2" x="5.10" y="-1.60" angle="90.00" type="human" speed="13.89" pos="5.10" lane="e0_0" slope="0.00"/>
    </timestep>
    <timestep time="62.00">
        <vehicle id="background.2" x="11.96" y="-1.60" angle="90.00" type="human" speed="13.73" pos="11.96" lane="e0_0" slope="0.00"/>
    </timestep>
    <timestep time="62.50">
        <vehicle id="background.2" x="18.82" y="-1.60" angle="90.00" type="human" speed="13.71" pos="18.82" lane="e0_0" slope="0.00"/>
    </timestep>
    <timestep time="63.00">
        <vehicle id="background.2" x="25.74" y="-1.60" angle="90.00" type="human" speed="13.84" pos="25.74" lane="e0_0" slope="0.00"/>
    </timestep>
    <timestep time="63.50">
        <vehicle id="background.2" x="32.66" y="-1.60" angle="90.00" type="human" speed="13.83" pos="32.66" lane="e0_0" slope="0.00"/>
    </timestep>
    <timestep time="64.00">
        <vehicle id="background.2" x="39.56" y="-1.60" angle="90.00" type="human" speed="13.81" pos="39.56" lane="e0_0" slope="0.00"/>
    </timestep>
    <timestep time="64.50">
        <vehicle id="background.2" x="46.40" y="-1.60" angle="90.00" type="human" speed="13.67" pos="46.40" lane="e0_0" slope="0.00"/>
    </timestep>
    <timestep time="65.00">
        <vehicle id="background.2" x="53.16" y="-1.60" angle="90.00" type="human" speed="13.52" pos="53.16" lane="e0_0" slope="0.00"/>
    </timestep>
    <timestep time="65.50">
        <vehicle id="background.2" x="59.91" y="-1.60" angle="90.00" type="human" speed="13.49" pos="59.91" lane="e0_0" slope="0.00"/>
    </timestep>
    <timestep time="66.00">
        <vehicle id="background.2" x="66.82" y="-1.60" angle="90.00" type="human" speed="13.83" pos="66.82" lane="e0_0" slope="0.00"/>
    </timestep>
    <timestep time="66.50">
        <vehicle id="background.2" x="73.64" y="-1.60" angle="90.00" type="human" speed="13.62" pos="73.64" lane="e0_0" slope="0.00"/>
    </timestep>
    <timestep time="67.00">
        <vehicle id="background.2" x="80.53" y="-1.60" angle="90.00" type="human" speed="13.79" pos="80.53" lane="e0_0" slope="0.00"/>
    </timestep>
    <timestep time="67.50">
        <vehicle id="background.2" x="87.42" y="-1.60" angle="90.00" type="human" speed="13.77" pos="87.42" lane="e0_0" slope="0.00"/>
    </timestep>
    <timestep time="68.00">
        <vehicle id="background.2" x="94.36" y="-1.60" angle="90.00" type="human" speed="13.89" pos="94.36" lane="e0_0" slope="0.00"/>
    </timestep>
    <timestep time="68.50">
        <vehicle id="background.2" x="101.21" y="-1.60" angle="90.00" type="human" speed="13.71" pos="101.21" lane="e0_0" slope="0.00"/>
    </timestep>
    <timestep time="69.00">
        <vehicle id="background.2" x="108.14" y="-1.60" angle="90.00" type="human" speed="13.85" pos="108.14" lane="e0_0" slope="0.00"/>
    </timestep>
    <timestep time="69.50">
        <vehicle id="background.2" x="114.99" y="-1.60" angle="90.00" type="human" speed="13.70" pos="114.99" lane="e0_0" slope="0.00"/>
    </timestep>
    <timestep time="70.00">
        <vehicle id="background.2" x="121.77" y="-1.60" angle="90.00" type="human" speed="13.56" pos="121.77" lane="e0_0" slope="0.00"/>
    </timestep>
    <timestep time="70.50">
        <vehicle id="background.2" x="128.67" y="-1.60" angle="90.00" type="human" speed="13.81" pos="128.67" lane="e0_0" slope="0.00"/>
    </timestep>
    <timestep time="71.00">
        <vehicle id="background.2" x="135.58" y="-1.60" angle="90.00" type="human" speed="13.82" pos="135.58" lane="e0_0" slope="0.00"/>
    </timestep>
    <timestep time="71.50">
        <vehicle id="background.2" x="142.43" y="-1.60" angle="90.00" type="human" speed="13.71" pos="142.43" lane="e0_0" slope="0.00"/>
    </timestep>
    <timestep time="72.00">
        <vehicle id="background.2" x="149.28" y="-1.60" angle="90.00" type="human" speed="13.70" pos="149.28" lane="e0_0" slope="0.00"/>
    </timestep>
    <timestep time="72.50">
        <vehicle id="background.2" x="156.21" y="-1.60" angle="90.00" type="human" speed="13.86" pos="156.21" lane="e0_0" slope="0.00"/>
    </timestep>
    <timestep time="73.00">
        <vehicle id="background.2" x="163.14" y="-1.60" angle="90.00" type="human" speed="13.84" pos="163.14" lane="e0_0" slope="0.00"/>
    </timestep>
    <timestep time="73.50">
        <vehicle id="background.2" x="169.96" y="-1.60" angle="90.00" type="human" speed="13.65" pos="169.96" lane="e0_0" slope="0.00"/>
    </timestep>
    <timestep time="74.00">
        <vehicle id="background.2" x="176.88" y="-1.60" angle="90.00" type="human" speed="13.84" pos="176.88" lane="e0_0" slope="0.00"/>
    </timestep>
    <timestep time="74.50">
        <vehicle id="background.2" x="183.67" y="-1.60" angle="90.00" type="human" speed="13.58" pos="183.67" lane="e0_0" slope="0.00"/>
        <vehicle id="background.3" x="5.10" y="-1.60" angle="90.00" type="human" speed="13.89" pos="5.10" lane="e0_0" slope="0.00"/>
    </timestep>
    <timestep time="75.00">
        <vehicle id="background.2" x="190.38" y="-1.60" angle="90.00" type="human" speed="13.42" pos="190.38" lane="e0_0" slope="0.00"/>
        <vehicle id="background.3" x="12.00" y="-1.60" angle="90.00" type="human" speed="13.80" pos="12.00" lane="e0_0" slope="0.00"/>
    </timestep>
    <timestep time="75.50">
        <vehicle id="background.2" x="197.13" y="-1.60" angle="90.00" type="human" speed="13.51" pos="197.13" lane="e0_0" slope="0.00"/>
        <vehicle id="background.3" x="18.85" y="-1.60" angle="90.00" type="human" speed="13.70" pos="18.85" lane="e0_0" slope="0.00"/>
    </timestep>
    <timestep time="76.00">
        <vehicle id="background.2" x="203.88" y="-1.60" angle="90.00" type="human" speed="13.49" pos="203.88" lane="e0_0" slope="0.00"/>
        <vehicle id="background.3" x="25.78" y="-1.60" angle="90.00" type="human" speed="13.86" pos="25.78" lane="e0_0" slope="0.00"/>
    </timestep>
    <timestep time="76.50">
        <vehicle id="background.2" x="210.68" y="-1.60" angle="90.00" type="human" speed="13.59" pos="210.68" lane="e0_0" slope="0.00"/>
        <vehicle id="background.3" x="32.60" y="-1.60" angle="90.00" type="human" speed="13.63" pos="32.60" lane="e0_0" slope="0.00"/>
    </timestep>
    <timestep time="77.00">
        <vehicle id="background.2" x="217.53" y="-1.60" angle="90.00" type="human" speed="13.70" pos="217.53" lane="e0_0" slope="0.00"/>
        <vehicle id="background.3" x="39.34" y="-1.60" angle="90.00" type="human" speed="13.49" pos="39.34" lane="e0_0" slope="0.00"/>
    </timestep>
    <timestep time="77.50">
        <vehicle id="background.2" x="224.44" y="-1.60" angle="90.00" type="human" speed="13.82" pos="224.44" lane="e0_0" slope="0.00"/>
        <vehicle id="background.3" x="46.22" y="-1.60" angle="90.00" type="human" speed="13.76" pos="46.22" lane="e0_0" slope="0.00"/>
        <vehicle id="background.4" x="5.10" y="-1.60" angle="90.00" type="human" speed="13.89" pos="5.10" lane="e0_0" slope="0.00"/>
    </timestep>
    <timestep time="78.00">