<?xml version="1.0" encoding="UTF-8"?>

<!-- generated on 2026-05-14 17:04:57 by Eclipse SUMO sumo Version 1.24.0
<sumoConfiguration xmlns:xsi="http://www.w3.org/2001/XMLSchema-instance" xsi:noNamespaceSchemaLocation="http://sumo.dlr.de/xsd/sumoConfiguration.xsd">

    <input>
        <net-file value="scenarios/simple_arterial/simple_arterial.net.xml"/>
        <route-files value="scenarios/simple_arterial/simple_arterial.rou.xml"/>
        <additional-files value="scenarios/simple_arterial/simple_arterial.tls.xml"/>
    </input>

    <output>
        <fcd-output value="runs/fcd_expert_default/episode_00060_seed_102.fcd.xml"/>
    </output>

    <time>
        <begin value="0"/>
        <end value="900"/>
        <step-length value="0.5"/>
    </time>

    <report>
        <no-warnings value="true"/>
    </report>

    <traci_server>
        <remote-port value="24542"/>
    </traci_server>

    <random_number>
        <seed value="102"/>
    </random_number>

</sumoConfiguration>
-->

<fcd-export xmlns:xsi="http://www.w3.org/2001/XMLSchema-instance" xsi:noNamespaceSchemaLocation="http://sumo.dlr.de/xsd/fcd_file.xsd">
    <timestep time="0.00"/>
    <timestep time="0.50"/>
    <timestep time="1.00"/>
    <timestep time="1.50"/>
    <timestep time="2.00"/>
    <timestep time="2.50"/>
    <timestep time="3.00"/>
    <timestep time="3.50"/>
    <timestep time="4.00"/>
    <timestep time="4.50"/>
    <timestep time="5.00"/>
    <timestep time="5.50"/>
    <timestep time="6.00"/>
    <timestep time="6.50"/>
    <timestep time="7.00"/>
    <timestep time="7.50"/>
    <timestep time="8.00"/>
    <timestep time="8.50"/>
    <timestep time="9.00"/>
    <timestep time="9.50"/>
    <timestep time="10.00"/>
    <timestep time="10.50"/>
    <timestep time="11.00"/>
    <timestep time="11.50">
        <vehicle id="background.0" x="5.10" y="-1.60" angle="90.00" type="human" speed="13.89" pos="5.10" lane="e0_0" slope="0.00"/>
    </timestep>
    <timestep time="12.00">
        <vehicle id="background.0" x="11.94" y="-1.60" angle="90.00" type="human" speed="13.67" pos="11.94" lane="e0_0" slope="0.00"/>
    </timestep>
    <timestep time="12.50">
        <vehicle id="background.0" x="18.82" y="-1.60" angle="90.00" type="human" speed="13.76" pos="18.82" lane="e0_0" slope="0.00"/>
    </timestep>
    <timestep time="13.00">
        <vehicle id="background.0" x="25.72" y="-1.60" angle="90.00" type="human" speed="13.80" pos="25.72" lane="e0_0" slope="0.00"/>
    </timestep>
    <timestep time="13.50">
        <vehicle id="background.0" x="32.46" y="-1.60" angle="90.00" type="human" speed="13.49" pos="32.46" lane="e0_0" slope="0.00"/>
    </timestep>
    <timestep time="14.00">
        <vehicle id="background.0" x="39.36" y="-1.60" angle="90.00" type="human" speed="13.80" pos="39.36" lane="e0_0" slope="0.00"/>
    </timestep>
    <timestep time="14.50">
        <vehicle id="background.0" x="46.30" y="-1.60" angle="90.00" type="human" speed="13.86" pos="46.30" lane="e0_0" slope="0.00"/>
        <vehicle id="ego" x="5.10" y="-1.60" angle="90.00" type="ego_type" speed="0.00" pos="5.10" lane="e0_0" slope="0.00"/>
    </timestep>
    <timestep time="15.00">
        <vehicle id="background.0" x="53.03" y="-1.60" angle="90.00" type="human" speed="13.48" pos="53.03" lane="e0_0" slope="0.00"/>
        <vehicle id="ego" x="5.60" y="-1.60" angle="90.00" type="ego_type" speed="1.00" pos="5.60" lane="e0_0" slope="0.00"/>
    </timestep>
    <timestep time="15.50">
        <vehicle id="background.0" x="59.83" y="-1.60" angle="90.00" type="human" speed="13.60" pos="59.83" lane="e0_0" slope="0.00"/>
        <vehicle id="ego" x="6.60" y="-1.60" angle="90.00" type="ego_type" speed="2.00" pos="6.60" lane="e0_0" slope="0.00"/>
    </timestep>
    <timestep time="16.00">
        <vehicle id="background.0" x="66.66" y="-1.60" angle="90.00" type="human" speed="13.66" pos="66.66" lane="e0_0" slope="0.00"/>
        <vehicle id="ego" x="8.10" y="-1.60" angle="90.00" type="ego_type" speed="3.00" pos="8.10" lane="e0_0" slope="0.00"/>
    </timestep>
    <timestep time="16.50">
        <vehicle id="background.0" x="73.40" y="-1.60" angle="90.00" type="human" speed="13.48" pos="73.40" lane="e0_0" slope="0.00"/>
        <vehicle id="ego" x="10.10" y="-1.60" angle="90.00" type="ego_type" speed="4.00" pos="10.10" lane="e0_0" slope="0.00"/>
    </timestep>
    <timestep time="17.00">
        <vehicle id="background.0" x="80.14" y="-1.60" angle="90.00" type="human" speed="13.48" pos="80.14" lane="e0_0" slope="0.00"/>
        <vehicle id="ego" x="12.60" y="-1.60" angle="90.00" type="ego_type" speed="5.00" pos="12.60" lane="e0_0" slope="0.00"/>
    </timestep>
    <timestep time="17.50">
        <vehicle id="background.0" x="87.01" y="-1.60" angle="90.00" type="human" speed="13.74" pos="87.01" lane="e0_0" slope="0.00"/>
        <vehicle id="ego" x="15.60" y="-1.60" angle="90.00" type="ego_type" speed="6.00" pos="15.60" lane="e0_0" slope="0.00"/>
    </timestep>
    <timestep time="18.00">
        <vehicle id="background.0" x="93.90" y="-1.60" angle="90.00" type="human" speed="13.79" pos="93.90" lane="e0_0" slope="0.00"/>
        <vehicle id="ego" x="19.10" y="-1.60" angle="90.00" type="ego_type" speed="7.00" pos="19.10" lane="e0_0" slope="0.00"/>
    </timestep>
    <timestep time="18.50">
        <vehicle id="background.0" x="100.75" y="-1.60" angle="90.00" type="human" speed="13.69" pos="100.75" lane="e0_0" slope="0.00"/>
        <vehicle id="ego" x="23.10" y="-1.60" angle="90.00" type="ego_type" speed="8.00" pos="23.10" lane="e0_0" slope="0.00"/>
    </timestep>
    <timestep time="19.00">
        <vehicle id="background.0" x="107.46" y="-1.60" angle="90.00" type="human" speed="13.42" pos="107.46" lane="e0_0" slope="0.00"/>
        <vehicle id="ego" x="27.60" y="-1.60" angle="90.00" type="ego_type" speed="9.00" pos="27.60" lane="e0_0" slope="0.00"/>
    </timestep>
    <timestep time="19.50">
        <vehicle id="background.0" x="114.23" y="-1.60" angle="90.00" type="human" speed="13.55" pos="114.23" lane="e0_0" slope="0.00"/>
        <vehicle id="ego" x="32.60" y="-1.60" angle="90.00" type="ego_type" speed="10.00" pos="32.60" lane="e0_0" slope="0.00"/>
    </timestep>
    <timestep time="20.00">
        <vehicle id="background.0" x="121.02" y="-1.60" angle="90.00" type="human" speed="13.59" pos="121.02" lane="e0_0" slope="0.00"/>
        <vehicle id="ego" x="38.10" y="-1.60" angle="90.00" type="ego_type" speed="11.00" pos="38.10" lane="e0_0" slope="0.00"/>
    </timestep>
    <timestep time="20.50">
        <vehicle id="background.0" x="127.80" y="-1.60" angle="90.00" type="human" speed="13.55" pos="127.80" lane="e0_0" slope="0.00"/>
        <vehicle id="ego" x="44.10" y="-1.60" angle="90.00" type="ego_type" speed="12.00" pos="44.10" lane="e0_0" slope="0.00"/>
    </timestep>
    <timestep time="21.00">
        <vehicle id="background.0" x="134.74" y="-1.60" angle="90.00" type="human" speed="13.89" pos="134.74" lane="e0_0" slope="0.00"/>
        <vehicle id="background.1" x="5.10" y="-1.60" angle="90.00" type="human" speed="13.89" pos="5.10" lane="e0_0" slope="0.00"/>
        <vehicle id="ego" x="50.60" y="-1.60" angle="90.00" type="ego_type" speed="13.00" pos="50.60" lane="e0_0" slope="0.00"/>
    </timestep>
    <timestep time="21.50">
        <vehicle id="background.0" x="141.60" y="-1.60" angle="90.00" type="human" speed="13.72" pos="141.60" lane="e0_0" slope="0.00"/>
        <vehicle id="background.1" x="11.96" y="-1.60" angle="90.00" type="human" speed="13.71" pos="11.96" lane="e0_0" slope="0.00"/>
        <vehicle id="ego" x="57.55" y="-1.60" angle="90.00" type="ego_type" speed="13.89" pos="57.55" lane="e0_0" slope="0.00"/>
    </timestep>
    <timestep time="22.00">
        <vehicle id="background.0" x="148.31" y="-1.60" angle="90.00" type="human" speed="13.40" pos="148.31" lane="e0_0" slope="0.00"/>
        <vehicle id="background.1" x="18.85" y="-1.60" angle="90.00" type="human" speed="13.80" pos="18.85" lane="e0_0" slope="0.00"/>
        <vehicle id="ego" x="64.49" y="-1.60" angle="90.00" type="ego_type" speed="13.89" pos="64.49" lane="e0_0" slope="0.00"/>
    </timestep>
    <timestep time="22.50">
        <vehicle id="background.0" x="155.03" y="-1.60" angle="90.00" type="human" speed="13.45" pos="155.03" lane="e0_0" slope="0.00"/>
        <vehicle id="background.1" x="25.61" y="-1.60" angle="90.00" type="human" speed="13.51" pos="25.61" lane="e0_0" slope="0.00"/>
        <vehicle id="ego" x="71.44" y="-1.60" angle="90.00" type="ego_type" speed="13.89" pos="71.44" lane="e0_0" slope="0.00"/>
    </timestep>
    <timestep time="23.00">
        <vehicle id="background.0" x="161.91" y="-1.60" angle="90.00" type="human" speed="13.76" pos="161.91" lane="e0_0" slope="0.00"/>
        <vehicle id="background.1" x="32.45" y="-1.60" angle="90.00" type="human" speed="13.68" pos="32.45" lane="e0_0" slope="0.00"/>
        <vehicle id="ego" x="78.38" y="-1.60" angle="90.00" type="ego_type" speed="13.89" pos="78.38" lane="e0_0" slope="0.00"/>
    </timestep>
    <timestep time="23.50">
        <vehicle id="background.0" x="168.76" y="-1.60" angle="90.00" type="human" speed="13.70" pos="168.76" lane="e0_0" slope="0.00"/>
        <vehicle id="background.1" x="39.25" y="-1.60" angle="90.00" type="human" speed="13.59" pos="39.25" lane="e0_0" slope="0.00"/>
        <vehicle id="ego" x="85.32" y="-1.60" angle="90.00" type="ego_type" speed="13.89" pos="85.32" lane="e0_0" slope="0.00"/>
    </timestep>
    <timestep time="24.00">
        <vehicle id="background.0" x="175.61" y="-1.60" angle="90.00" type="human" speed="13.71" pos="175.61" lane="e0_0" slope="0.00"/>
        <vehicle id="background.1" x="46.00" y="-1.60" angle="90.00" type="human" speed="13.50" pos="46.00" lane="e0_0" slope="0.00"/>
        <vehicle id="ego" x="92.27" y="-1.60" angle="90.00" type="ego_type" speed="13.89" pos="92.27" lane="e0_0" slope="0.00"/>
    </timestep>
    <timestep time="24.50">
        <vehicle id="background.0" x="182.41" y="-1.60" angle="90.00" type="human" speed="13.59" pos="182.41" lane="e0_0" slope="0.00"/>
        <vehicle id="background.1" x="52.92" y="-1.60" angle="90.00" type="human" speed="13.84" pos="52.92" lane="e0_0" slope="0.00"/>
        <vehicle id="ego" x="99.21" y="-1.60" angle="90.00" type="ego_type" speed="13.89" pos="99.21" lane="e0_0" slope="0.00"/>
    </timestep>
    <timestep time="25.00">
        <vehicle id="background.0" x="189.32" y="-1.60" angle="90.00" type="human" speed="13.81" pos="189.32" lane="e0_0" slope="0.00"/>
        <vehicle id="background.1" x="59.85" y="-1.60" angle="90.00" type="human" speed="13.87" pos="59.85" lane="e0_0" slope="0.00"/>
        <vehicle id="ego" x="106.16" y="-1.60" angle="90.00" type="ego_type" speed="13.89" pos="106.16" lane="e0_0" slope="0.00"/>
    </timestep>
    <timestep time="25.50">
        <vehicle id="background.0" x="196.12" y="-1.60" angle="90.00" type="human" speed="13.60" pos="196.12" lane="e0_0" slope="0.00"/>
        <vehicle id="background.1" x="66.77" y="-1.60" angle="90.00" type="human" speed="13.83" pos="66.77" lane="e0_0" slope="0.00"/>
        <vehicle id="ego" x="113.10" y="-1.60" angle="90.00" type="ego_type" speed="13.89" pos="113.10" lane="e0_0" slope="0.00"/>
    </timestep>
    <timestep time="26.00">
        <vehicle id="background.0" x="202.83" y="-1.60" angle="90.00" type="human" speed="13.42" pos="202.83" lane="e0_0" slope="0.00"/>
        <vehicle id="background.1" x="73.66" y="-1.60" angle="90.00" type="human" speed="13.77" pos="73.66" lane="e0_0" slope="0.00"/>
        <vehicle id="ego" x="120.05" y="-1.60" angle="90.00" type="ego_type" speed="13.89" pos="120.05" lane="e0_0" slope="0.00"/>
    </timestep>
    <timestep time="26.50">
        <vehicle id="background.0" x="209.76" y="-1.60" angle="90.00" type="human" speed="13.86" pos="209.76" lane="e0_0" slope="0.00"/>
        <vehicle id="background.1" x="80.45" y="-1.60" angle="90.00" type="human" speed="13.60" pos="80.45" lane="e0_0" slope="0.00"/>
        <vehicle id="ego" x="126.99" y="-1.60" angle="90.00" type="ego_type" speed="13.89" pos="126.99" lane="e0_0" slope="0.00"/>
    </timestep>
    <timestep time="27.00">
        <vehicle id="background.0" x="216.56" y="-1.60" angle="90.00" type="human" speed="13.62" pos="216.56" lane="e0_0" slope="0.00"/>
        <vehicle id="background.1" x="87.39" y="-1.60" angle="90.00" type="human" speed="13.87" pos="87.39" lane="e0_0" slope="0.00"/>
        <vehicle id="ego" x="133.94" y="-1.60" angle="90.00" type="ego_type" speed="13.89" pos="133.94" lane="e0_0" slope="0.00"/>
    </timestep>
    <timestep time="27.50">
        <vehicle id="background.0" x="223.42" y="-1.60" angle="90.00" type="human" speed="13.72" pos="223.42" lane="e0_0" slope="0.00"/>
        <vehicle id="background.1" x="94.23" y="-1.60" angle="90.00" type="human" speed="13.68" pos="94.23" lane="e0_0" slope="0.00"/>
        <vehicle id="ego" x="140.88" y="-1.60" angle="90.00" type="ego_type" speed="13.89" pos="140.88" lane="e0_0" slope="0.00"/>
    </timestep>
    <timestep time="28.00">
        <vehicle id="background.0" x="230.33" y="-1.60" angle="90.00" type="human" speed="13.81" pos="230.33" lane="e0_0" slope="0.00"/>
        <vehicle id="background.1" x="100.93" y="-1.60" angle="90.00" type="human" speed="13.40" pos="100.93" lane="e0_0" slope="0.00"/>
        <vehicle id="ego" x="147.83" y="-1.60" angle="90.00" type="ego_type" speed="13.89" pos="147.83" lane="e0_0" slope="0.00"/>
    </timestep>
    <timestep time="28.50">
        <vehicle id="background.0" x="237.08" y="-1.60" angle="90.00" type="human" speed="13.51" pos="237.08" lane="e0_0" slope="0.00"/>
        <vehicle id="background.1" x="107.74" y="-1.60" angle="90.00" type="human" speed="13.61" pos="107.74" lane="e0_0" slope="0.00"/>
        <vehicle id="ego" x="154.77" y="-1.60" angle="90.00" type="ego_type" speed="13.89" pos="154.77" lane="e0_0" slope="0.00"/>
    </timestep>
    <timestep time="29.00">
        <vehicle id="background.0" x="243.89" y="-1.60" angle="90.00" type="human" speed="13.61" pos="243.89" lane="e0_0" slope="0.00"/>
        <vehicle id="background.1" x="114.45" y="-1.60" angle="90.00" type="human" speed="13.41" pos="114.45" lane="e0_0" slope="0.00"/>
        <vehicle id="ego" x="161.72" y="-1.60" angle="90.00" type="ego_type" speed="13.89" pos="161.72" lane="e0_0" slope="0.00"/>
    </timestep>
    <timestep time="29.50">
        <vehicle id="background.0" x="250.64" y="-1.60" angle="90.00" type="human" speed="13.50" pos="250.64" lane="e0_0" slope="0.00"/>
        <vehicle id="background.1" x="121.37" y="-1.60" angle="90.00" type="human" speed="13.84" pos="121.37" lane="e0_0" slope="0.00"/>
        <vehicle id="ego" x="168.66" y="-1.60" angle="90.00" type="ego_type" speed="13.89" pos="168.66" lane="e0_0" slope="0.00"/>
    </timestep>
    <timestep time="30.00">
        <vehicle id="background.0" x="257.36" y="-1.60" angle="90.00" type="human" speed="13.45" pos="257.36" lane="e0_0" slope="0.00"/>
        <vehicle id="background.1" x="128.15" y="-1.60" angle="90.00" type="human" speed="13.56" pos="128.15" lane="e0_0" slope="0.00"/>
        <vehicle id="ego" x="175.61" y="-1.60" angle="90.00" type="ego_type" speed="13.89" pos="175.61" lane="e0_0" slope="0.00"/>
    </timestep>
    <timestep time="30.50">
        <vehicle id="background.0" x="264.16" y="-1.60" angle="90.00" type="human" speed="13.60" pos="264.16" lane="e0_0" slope="0.00"/>
        <vehicle id="background.1" x="134.94" y="-1.60" angle="90.00" type="human" speed="13.59" pos="134.94" lane="e0_0" slope="0.00"/>
        <vehicle id="ego" x="182.55" y="-1.60" angle="90.00" type="ego_type" speed="13.89" pos="182.55" lane="e0_0" slope="0.00"/>
    </timestep>
    <timestep time="31.00">
        <vehicle id="background.0" x="270.94" y="-1.60" angle="90.00" type="human" speed="13.55" pos="270.94" lane="e0_0" slope="0.00"/>
        <vehicle id="background.1" x="141.66" y="-1.60" angle="90.00" type="human" speed="13.45" pos="141.66" lane="e0_0" slope="0.00"/>
        <vehicle id="ego" x="189.50" y="-1.60" angle="90.00" type="ego_type" speed="13.89" pos="189.50" lane="e0_0" slope="0.00"/>
    </timestep>
    <timestep time="31.50">
        <vehicle id="background.0" x="277.74" y="-1.60" angle="90.00" type="human" speed="13.61" pos="277.74" lane="e0_0" slope="0.00"/>
        <vehicle id="background.1" x="148.59" y="-1.60" angle="90.00" type="human" speed="13.85" pos="148.59" lane="e0_0" slope="0.00"/>
        <vehicle id="ego" x="196.44" y="-1.60" angle="90.00" type="ego_type" speed="13.89" pos="196.44" lane="e0_0" slope="0.00"/>
    </timestep>
    <timestep time="32.00">
        <vehicle id="background.0" x="284.46" y="-1.60" angle="90.00" type="human" speed="13.44" pos="284.46" lane="e0_0" slope="0.00"/>
        <vehicle id="background.1" x="155.43" y="-1.60" angle="90.00" type="human" speed="13.69" pos="155.43" lane="e0_0" slope="0.00"/>
        <vehicle id="ego" x="203.39" y="-1.60" angle="90.00" type="ego_type" speed="13.89" pos="203.39" lane="e0_0" slope="0.00"/>
    </timestep>
    <timestep time="32.50">
        <vehicle id="background.0" x="291.27" y="-1.60" angle="90.00" type="human" speed="13.62" pos="291.27" lane="e0_0" slope="0.00"/>
        <vehicle id="background.1" x="162.29" y="-1.60" angle="90.00" type="human" speed="13.72" pos="162.29" lane="e0_0" slope="0.00"/>
        <vehicle id="ego" x="210.33" y="-1.60" angle="90.00" type="ego_type" speed="13.89" pos="210.33" lane="e0_0" slope="0.00"/>
    </timestep>
    <timestep time="33.00">
        <vehicle id="background.0" x="298.08" y="-1.60" angle="90.00" type="human" speed="13.62" pos="298.08" lane="e0_0" slope="0.00"/>
        <vehicle id="background.1" x="169.03" y="-1.60" angle="90.00" type="human" speed="13.47" pos="169.03" lane="e0_0" slope="0.00"/>
        <vehicle id="ego" x="217.28" y="-1.60" angle="90.00" type="ego_type" speed="13.89" pos="217.28" lane="e0_0" slope="0.00"/>
    </timestep>
    <timestep time="33.50">
        <vehicle id="background.0" x="304.87" y="-1.60" angle="90.00" type="human" speed="13.78" pos="4.87" lane="e1_0" slope="0.00"/>
        <vehicle id="background.1" x="175.93" y="-1.60" angle="90.00" type="human" speed="13.80" pos="175.93" lane="e0_0" slope="0.00"/>
        <vehicle id="ego" x="224.22" y="-1.60" angle="90.00" type="ego_type" speed="13.89" pos="224.22" lane="e0_0" slope="0.00"/>
    </timestep>
    <timestep time="34.00">
        <vehicle id="background.0" x="311.78" y="-1.60" angle="90.00" type="human" speed="13.82" pos="11.78" lane="e1_0" slope="0.00"/>
        <vehicle id="background.1" x="182.75" y="-1.60" angle="90.00" type="human" speed="13.65" pos="182.75" lane="e0_0" slope="0.00"/>
        <vehicle id="ego" x="231.17" y="-1.60" angle="90.00" type="ego_type" speed="13.89" pos="231.17" lane="e0_0" slope="0.00"/>
    </timestep>
    <timestep time="34.50">
        <vehicle id="background.0" x="318.69" y="-1.60" angle="90.00" type="human" speed="13.83" pos="18.69" lane="e1_0" slope="0.00"/>
        <vehicle id="background.1" x="189.61" y="-1.60" angle="90.00" type="human" speed="13.71" pos="189.61" lane="e0_0" slope="0.00"/>
        <vehicle id="ego" x="238.11" y="-1.60" angle="90.00" type="ego_type" speed="13.89" pos="238.11" lane="e0_0" slope="0.00"/>
    </timestep>
    <timestep time="35.00">
        <vehicle id="background.0" x="325.58" y="-1.60" angle="90.00" type="human" speed="13.78" pos="25.58" lane="e1_0" slope="0.00"/>
        <vehicle id="background.1" x="196.35" y="-1.60" angle="90.00" type="human" speed="13.48" pos="196.35" lane="e0_0" slope="0.00"/>
        <vehicle id="ego" x="245.06" y="-1.60" angle="90.00" type="ego_type" speed="13.89" pos="245.06" lane="e0_0" slope="0.00"/>
    </timestep>
    <timestep time="35.50">
        <vehicle id="background.0" x="332.33" y="-1.60" angle="90.00" type="human" speed="13.50" pos="32.33" lane="e1_0" slope="0.00"/>
        <vehicle id="background.1" x="203.26" y="-1.60" angle="90.00" type="human" speed="13.82" pos="203.26" lane="e0_0" slope="0.00"/>
        <vehicle id="ego" x="252.00" y="-1.60" angle="90.00" type="ego_type" speed="13.89" pos="252.00" lane="e0_0" slope="0.00"/>
    </timestep>
    <timestep time="36.00">
        <vehicle id="background.0" x="339.07" y="-1.60" angle="90.00" type="human" speed="13.49" pos="39.07" lane="e1_0" slope="0.00"/>
        <vehicle id="background.1" x="210.00" y="-1.60" angle="90.00" type="human" speed="13.48" pos="210.00" lane="e0_0" slope="0.00"/>
        <vehicle id="ego" x="258.95" y="-1.60" angle="90.00" type="ego_type" speed="13.89" pos="258.95" lane="e0_0" slope="0.00"/>
    </timestep>
    <timestep time="36.50">
        <vehicle id="background.0" x="345.91" y="-1.60" angle="90.00" type="human" speed="13.68" pos="45.91" lane="e1_0" slope="0.00"/>
        <vehicle id="background.1" x="216.90" y="-1.60" angle="90.00" type="human" speed="13.80" pos="216.90" lane="e0_0" slope="0.00"/>
        <vehicle id="ego" x="265.89" y="-1.60" angle="90.00" type="ego_type" speed="13.89" pos="265.89" lane="e0_0" slope="0.00"/>
    </timestep>
    <timestep time="37.00">
        <vehicle id="background.1" x="223.70" y="-1.60" angle="90.00" type="human" speed="13.61" pos="223.70" lane="e0_0" slope="0.00"/>
        <vehicle id="ego" x="272.84" y="-1.60" angle="90.00" type="ego_type" speed="13.89" pos="272.84" lane="e0_0" slope="0.00"/>
    </timestep>
    <timestep time="37.50">
        <vehicle id="background.1" x="230.61" y="-1.60" angle="90.00" type="human" speed="13.83" pos="230.61" lane="e0_0" slope="0.00"/>
        <vehicle id="ego" x="279.78" y="-1.60" angle="90.00" type="ego_type" speed="13.89" pos="279.78" lane="e0_0" slope="0.00"/>
    </timestep>
    <timestep time="38.00">
        <vehicle id="background.1" x="237.39" y="-1.60" angle="90.00" type="human" speed="13.54" pos="237.39" lane="e0_0" slope="0.00"/>
        <vehicle id="ego" x="286.73" y="-1.60" angle="90.00" type="ego_type" speed="13.89" pos="286.73" lane="e0_0" slope="0.00"/>
    </timestep>
    <timestep time="38.50">
        <vehicle id="background.1" x="244.32" y="-1.60" angle="90.00" type="human" speed="13.87" pos="244.32" lane="e0_0" slope="0.00"/>
        <vehicle id="ego" x="293.67" y="-1.60" angle="90.00" type="ego_type" speed="13.89" pos="293.67" lane="e0_0" slope="0.00"/>
    </timestep>
    <timestep time="39.00">
        <vehicle id="background.1" x="251.19" y="-1.60" angle="90.00" type="human" speed="13.74" pos="251.19" lane="e0_0" slope="0.00"/>
        <vehicle id="ego" x="300.52" y="-1.60" angle="90.00" type="ego_type" speed="13.89" pos="0.52" lane="e1_0" slope="0.00"/>
    </timestep>
    <timestep time="39.50">
        <vehicle id="background.1" x="258.02" y="-1.60" angle="90.00" type="human" speed="13.65" pos="258.02" lane="e0_0" slope="0.00"/>
        <vehicle id="ego" x="307.46" y="-1.60" angle="90.00" type="ego_type" speed="13.89" pos="7.46" lane="e1_0" slope="0.00"/>
    </timestep>
    <timestep time="40.00">
        <vehicle id="background.1" x="264.74" y="-1.60" angle="90.00" type="human" speed="13.44" pos="264.74" lane="e0_0" slope="0.00"/>
        <vehicle id="ego" x="314.41" y="-1.60" angle="90.00" type="ego_type" speed="13.89" pos="14.41" lane="e1_0" slope="0.00"/>
    </timestep>
    <timestep time="40.50">
        <vehicle id="background.1" x="271.46" y="-1.60" angle="90.00" type="human" speed="13.44" pos="271.46" lane="e0_0" slope="0.00"/>
        <vehicle id="ego" x="321.35" y="-1.60" angle="90.00" type="ego_type" speed="13.89" pos="21.35" lane="e1_0" slope="0.00"/>
    </timestep>
    <timestep time="41.00">
        <vehicle id="background.1" x="278.33" y="-1.60" angle="90.00" type="human" speed="13.75" pos="278.33" lane="e0_0" slope="0.00"/>
        <vehicle id="ego" x="328.30" y="-1.60" angle="90.00" type="ego_type" speed="13.89" pos="28.30" lane="e1_0" slope="0.00"/>
    </timestep>
    <timestep time="41.50">
        <vehicle id="background.1" x="285.20" y="-1.60" angle="90.00" type="human" speed="13.74" pos="285.20" lane="e0_0" slope="0.00"/>
        <vehicle id="ego" x="335.24" y="-1.60" angle="90.00" type="ego_type" speed="13.89" pos="35.24" lane="e1_0" slope="0.00"/>
    </timestep>
    <timestep time="42.00">
        <vehicle id="background.1" x="292.09" y="-1.60" angle="90.00" type="human" speed="13.78" pos="292.09" lane="e0_0" slope="0.00"/>
        <vehicle id="ego" x="342.19" y="-1.60" angle="90.00" type="ego_type" speed="13.89" pos="42.19" lane="e1_0" slope="0.00"/>
    </timestep>
    <timestep time="42.50">
        <vehicle id="background.1" x="298.90" y="-1.60" angle="90.00" type="human" speed="13.62" pos="298.90" lane="e0_0" slope="0.00"/>
        <vehicle id="ego" x="349.13" y="-1.60" angle="90.00" type="ego_type" speed="13.89" pos="49.13" lane="e1_0" slope="0.00"/>
    </timestep>
    <timestep time="43.00">
        <vehicle id="background.1" x="305.74" y="-1.60" angle="90.00" type="human" speed="13.88" pos="5.74" lane="e1_0" slope="0.00"/>
    </timestep>
</fcd-export>
