<?xml version="1.0" encoding="UTF-8"?>

<!-- generated on 2026-05-13 21:23:52 by Eclipse SUMO sumo Version 1.24.0
<sumoConfiguration xmlns:xsi="http://www.w3.org/2001/XMLSchema-instance" xsi:noNamespaceSchemaLocation="http://sumo.dlr.de/xsd/sumoConfiguration.xsd">

    <input>
        <net-file value="scenarios/simple_arterial/simple_arterial.net.xml"/>
        <route-files value="scenarios/simple_arterial/simple_arterial.rou.xml"/>
        <additional-files value="scenarios/simple_arterial/simple_arterial.tls.xml"/>
    </input>

    <output>
        <fcd-output value="runs/fcd_expert_default/episode_00007_seed_49.fcd.xml"/>
    </output>

    <time>
        <begin value="0"/>
        <end value="900"/>
        <step-length value="0.5"/>
    </time>

    <report>
        <no-warnings value="true"/>
    </report>

    <traci_server>
        <remote-port value="23821"/>
    </traci_server>

    <random_number>
        <seed value="49"/>
    </random_number>

</sumoConfiguration>
-->

<fcd-export xmlns:xsi="http://www.w3.org/2001/XMLSchema-instance" xsi:noNamespaceSchemaLocation="http://sumo.dlr.de/xsd/fcd_file.xsd">
    <timestep time="0.00"/>
    <timestep time="0.50"/>
    <timestep time="1.00"/>
    <timestep time="1.50"/>
    <timestep time="2.00"/>
    <timestep time="2.50"/>
    <timestep time="3.00"/>
    <timestep time="3.50"/>
    <timestep time="4.00"/>
    <timestep time="4.50"/>
    <timestep time="5.00"/>
    <timestep time="5.50"/>
    <timestep time="6.00"/>
    <timestep time="6.50"/>
    <timestep time="7.00"/>
    <timestep time="7.50"/>
    <timestep time="8.00"/>
    <timestep time="8.50"/>
    <timestep time="9.00"/>
    <timestep time="9.50"/>
    <timestep time="10.00"/>
    <timestep time="10.50"/>
    <timestep time="11.00"/>
    <timestep time="11.50"/>
    <timestep time="12.00"/>
    <timestep time="12.50">
        <vehicle id="background.0" x="5.10" y="-1.60" angle="90.00" type="human" speed="11.26" pos="5.10" lane="e0_0" slope="0.00"/>
    </timestep>
    <timestep time="13.00">
        <vehicle id="background.0" x="10.61" y="-1.60" angle="90.00" type="human" speed="11.01" pos="10.61" lane="e0_0" slope="0.00"/>
    </timestep>
    <timestep time="13.50">
        <vehicle id="background.0" x="16.20" y="-1.60" angle="90.00" type="human" speed="11.19" pos="16.20" lane="e0_0" slope="0.00"/>
    </timestep>
    <timestep time="14.00">
        <vehicle id="background.0" x="21.78" y="-1.60" angle="90.00" type="human" speed="11.15" pos="21.78" lane="e0_0" slope="0.00"/>
    </timestep>
    <timestep time="14.50">
        <vehicle id="background.0" x="27.39" y="-1.60" angle="90.00" type="human" speed="11.22" pos="27.39" lane="e0_0" slope="0.00"/>
    </timestep>
    <timestep time="15.00">
        <vehicle id="background.0" x="32.95" y="-1.60" angle="90.00" type="human" speed="11.13" pos="32.95" lane="e0_0" slope="0.00"/>
    </timestep>
    <timestep time="15.50">
        <vehicle id="background.0" x="38.43" y="-1.60" angle="90.00" type="human" speed="10.95" pos="38.43" lane="e0_0" slope="0.00"/>
    </timestep>
    <timestep time="16.00">
        <vehicle id="background.0" x="43.96" y="-1.60" angle="90.00" type="human" speed="11.06" pos="43.96" lane="e0_0" slope="0.00"/>
    </timestep>
    <timestep time="16.50">
        <vehicle id="background.0" x="49.58" y="-1.60" angle="90.00" type="human" speed="11.25" pos="49.58" lane="e0_0" slope="0.00"/>
    </timestep>
    <timestep time="17.00">
        <vehicle id="background.0" x="55.12" y="-1.60" angle="90.00" type="human" speed="11.07" pos="55.12" lane="e0_0" slope="0.00"/>
    </timestep>
    <timestep time="17.50">
        <vehicle id="background.0" x="60.71" y="-1.60" angle="90.00" type="human" speed="11.18" pos="60.71" lane="e0_0" slope="0.00"/>
    </timestep>
    <timestep time="18.00">
        <vehicle id="background.0" x="66.09" y="-1.60" angle="90.00" type="human" speed="10.76" pos="66.09" lane="e0_0" slope="0.00"/>
    </timestep>
    <timestep time="18.50">
        <vehicle id="background.0" x="71.48" y="-1.60" angle="90.00" type="human" speed="10.78" pos="71.48" lane="e0_0" slope="0.00"/>
    </timestep>
    <timestep time="19.00">
        <vehicle id="background.0" x="77.01" y="-1.60" angle="90.00" type="human" speed="11.06" pos="77.01" lane="e0_0" slope="0.00"/>
    </timestep>
    <timestep time="19.50">
        <vehicle id="background.0" x="82.44" y="-1.60" angle="90.00" type="human" speed="10.86" pos="82.44" lane="e0_0" slope="0.00"/>
    </timestep>
    <timestep time="20.00">
        <vehicle id="background.0" x="87.88" y="-1.60" angle="90.00" type="human" speed="10.87" pos="87.88" lane="e0_0" slope="0.00"/>
    </timestep>
    <timestep time="20.50">
        <vehicle id="background.0" x="93.44" y="-1.60" angle="90.00" type="human" speed="11.14" pos="93.44" lane="e0_0" slope="0.00"/>
    </timestep>
    <timestep time="21.00">
        <vehicle id="background.0" x="98.88" y="-1.60" angle="90.00" type="human" speed="10.88" pos="98.88" lane="e0_0" slope="0.00"/>
    </timestep>
    <timestep time="21.50">
        <vehicle id="background.0" x="104.43" y="-1.60" angle="90.00" type="human" speed="11.10" pos="104.43" lane="e0_0" slope="0.00"/>
    </timestep>
    <timestep time="22.00">
        <vehicle id="background.0" x="109.98" y="-1.60" angle="90.00" type="human" speed="11.10" pos="109.98" lane="e0_0" slope="0.00"/>
    </timestep>
    <timestep time="22.50">
        <vehicle id="background.0" x="115.50" y="-1.60" angle="90.00" type="human" speed="11.04" pos="115.50" lane="e0_0" slope="0.00"/>
    </timestep>
    <timestep time="23.00">
        <vehicle id="background.0" x="121.05" y="-1.60" angle="90.00" type="human" speed="11.09" pos="121.05" lane="e0_0" slope="0.00"/>
    </timestep>
    <timestep time="23.50">
        <vehicle id="background.0" x="126.64" y="-1.60" angle="90.00" type="human" speed="11.19" pos="126.64" lane="e0_0" slope="0.00"/>
    </timestep>
    <timestep time="24.00">
        <vehicle id="background.0" x="132.18" y="-1.60" angle="90.00" type="human" speed="11.08" pos="132.18" lane="e0_0" slope="0.00"/>
    </timestep>
    <timestep time="24.50">
        <vehicle id="background.0" x="137.67" y="-1.60" angle="90.00" type="human" speed="10.96" pos="137.67" lane="e0_0" slope="0.00"/>
    </timestep>
    <timestep time="25.00">
        <vehicle id="background.0" x="143.26" y="-1.60" angle="90.00" type="human" speed="11.19" pos="143.26" lane="e0_0" slope="0.00"/>
    </timestep>
    <timestep time="25.50">
        <vehicle id="background.0" x="148.64" y="-1.60" angle="90.00" type="human" speed="10.77" pos="148.64" lane="e0_0" slope="0.00"/>
    </timestep>
    <timestep time="26.00">
        <vehicle id="background.0" x="154.03" y="-1.60" angle="90.00" type="human" speed="10.77" pos="154.03" lane="e0_0" slope="0.00"/>
    </timestep>
    <timestep time="26.50">
        <vehicle id="background.0" x="159.64" y="-1.60" angle="90.00" type="human" speed="11.21" pos="159.64" lane="e0_0" slope="0.00"/>
    </timestep>
    <timestep time="27.00">
        <vehicle id="background.0" x="165.04" y="-1.60" angle="90.00" type="human" speed="10.80" pos="165.04" lane="e0_0" slope="0.00"/>
    </timestep>
    <timestep time="27.50">
        <vehicle id="background.0" x="170.60" y="-1.60" angle="90.00" type="human" speed="11.11" pos="170.60" lane="e0_0" slope="0.00"/>
    </timestep>
    <timestep time="28.00">
        <vehicle id="background.0" x="176.09" y="-1.60" angle="90.00" type="human" speed="10.98" pos="176.09" lane="e0_0" slope="0.00"/>
    </timestep>
    <timestep time="28.50">
        <vehicle id="background.0" x="181.66" y="-1.60" angle="90.00" type="human" speed="11.14" pos="181.66" lane="e0_0" slope="0.00"/>
    </timestep>
    <timestep time="29.00">
        <vehicle id="background.0" x="187.21" y="-1.60" angle="90.00" type="human" speed="11.10" pos="187.21" lane="e0_0" slope="0.00"/>
    </timestep>
    <timestep time="29.50">
        <vehicle id="background.0" x="192.71" y="-1.60" angle="90.00" type="human" speed="11.00" pos="192.71" lane="e0_0" slope="0.00"/>
    </timestep>
    <timestep time="30.00">
        <vehicle id="background.0" x="198.11" y="-1.60" angle="90.00" type="human" speed="10.82" pos="198.11" lane="e0_0" slope="0.00"/>
    </timestep>
    <timestep time="30.50">
        <vehicle id="background.0" x="203.73" y="-1.60" angle="90.00" type="human" speed="11.24" pos="203.73" lane="e0_0" slope="0.00"/>
    </timestep>
    <timestep time="31.00">
        <vehicle id="background.0" x="209.19" y="-1.60" angle="90.00" type="human" speed="10.92" pos="209.19" lane="e0_0" slope="0.00"/>
    </timestep>
    <timestep time="31.50">
        <vehicle id="background.0" x="214.76" y="-1.60" angle="90.00" type="human" speed="11.13" pos="214.76" lane="e0_0" slope="0.00"/>
    </timestep>
    <timestep time="32.00">
        <vehicle id="background.0" x="220.29" y="-1.60" angle="90.00" type="human" speed="11.06" pos="220.29" lane="e0_0" slope="0.00"/>
    </timestep>
    <timestep time="32.50">
        <vehicle id="background.0" x="225.75" y="-1.60" angle="90.00" type="human" speed="10.92" pos="225.75" lane="e0_0" slope="0.00"/>
    </timestep>
    <timestep time="33.00">
        <vehicle id="background.0" x="231.25" y="-1.60" angle="90.00" type="human" speed="11.01" pos="231.25" lane="e0_0" slope="0.00"/>
        <vehicle id="ego" x="5.10" y="-1.60" angle="90.00" type="ego_type" speed="0.00" pos="5.10" lane="e0_0" slope="0.00"/>
    </timestep>
    <timestep time="33.50">
        <vehicle id="background.0" x="236.69" y="-1.60" angle="90.00" type="human" speed="10.86" pos="236.69" lane="e0_0" slope="0.00"/>
        <vehicle id="ego" x="5.60" y="-1.60" angle="90.00" type="ego_type" speed="1.00" pos="5.60" lane="e0_0" slope="0.00"/>
    </timestep>
    <timestep time="34.00">
        <vehicle id="background.0" x="242.22" y="-1.60" angle="90.00" type="human" speed="11.08" pos="242.22" lane="e0_0" slope="0.00"/>
        <vehicle id="ego" x="6.60" y="-1.60" angle="90.00" type="ego_type" speed="2.00" pos="6.60" lane="e0_0" slope="0.00"/>
    </timestep>
    <timestep time="34.50">
        <vehicle id="background.0" x="247.83" y="-1.60" angle="90.00" type="human" speed="11.20" pos="247.83" lane="e0_0" slope="0.00"/>
        <vehicle id="ego" x="8.10" y="-1.60" angle="90.00" type="ego_type" speed="3.00" pos="8.10" lane="e0_0" slope="0.00"/>
    </timestep>
    <timestep time="35.00">
        <vehicle id="background.0" x="253.41" y="-1.60" angle="90.00" type="human" speed="11.18" pos="253.41" lane="e0_0" slope="0.00"/>
        <vehicle id="ego" x="10.10" y="-1.60" angle="90.00" type="ego_type" speed="4.00" pos="10.10" lane="e0_0" slope="0.00"/>
    </timestep>
    <timestep time="35.50">
        <vehicle id="background.0" x="259.04" y="-1.60" angle="90.00" type="human" speed="11.25" pos="259.04" lane="e0_0" slope="0.00"/>
        <vehicle id="ego" x="12.60" y="-1.60" angle="90.00" type="ego_type" speed="5.00" pos="12.60" lane="e0_0" slope="0.00"/>
    </timestep>
    <timestep time="36.00">
        <vehicle id="background.0" x="264.47" y="-1.60" angle="90.00" type="human" speed="10.86" pos="264.47" lane="e0_0" slope="0.00"/>
        <vehicle id="ego" x="15.60" y="-1.60" angle="90.00" type="ego_type" speed="6.00" pos="15.60" lane="e0_0" slope="0.00"/>
    </timestep>
    <timestep time="36.50">
        <vehicle id="background.0" x="270.03" y="-1.60" angle="90.00" type="human" speed="11.12" pos="270.03" lane="e0_0" slope="0.00"/>
        <vehicle id="ego" x="19.10" y="-1.60" angle="90.00" type="ego_type" speed="7.00" pos="19.10" lane="e0_0" slope="0.00"/>
    </timestep>
    <timestep time="37.00">
        <vehicle id="background.0" x="275.44" y="-1.60" angle="90.00" type="human" speed="10.83" pos="275.44" lane="e0_0" slope="0.00"/>
        <vehicle id="ego" x="23.10" y="-1.60" angle="90.00" type="ego_type" speed="8.00" pos="23.10" lane="e0_0" slope="0.00"/>
    </timestep>
    <timestep time="37.50">
        <vehicle id="background.0" x="280.94" y="-1.60" angle="90.00" type="human" speed="10.99" pos="280.94" lane="e0_0" slope="0.00"/>
        <vehicle id="background.1" x="5.10" y="-1.60" angle="90.00" type="human" speed="11.00" pos="5.10" lane="e0_0" slope="0.00"/>
        <vehicle id="ego" x="27.60" y="-1.60" angle="90.00" type="ego_type" speed="9.00" pos="27.60" lane="e0_0" slope="0.00"/>
    </timestep>
    <timestep time="38.00">
        <vehicle id="background.0" x="286.40" y="-1.60" angle="90.00" type="human" speed="10.91" pos="286.40" lane="e0_0" slope="0.00"/>
        <vehicle id="background.1" x="10.59" y="-1.60" angle="90.00" type="human" speed="10.97" pos="10.59" lane="e0_0" slope="0.00"/>
        <vehicle id="ego" x="32.60" y="-1.60" angle="90.00" type="ego_type" speed="10.00" pos="32.60" lane="e0_0" slope="0.00"/>
    </timestep>
    <timestep time="38.50">
        <vehicle id="background.0" x="291.85" y="-1.60" angle="90.00" type="human" speed="10.90" pos="291.85" lane="e0_0" slope="0.00"/>
        <vehicle id="background.1" x="16.14" y="-1.60" angle="90.00" type="human" speed="11.10" pos="16.14" lane="e0_0" slope="0.00"/>
        <vehicle id="ego" x="38.10" y="-1.60" angle="90.00" type="ego_type" speed="11.00" pos="38.10" lane="e0_0" slope="0.00"/>
    </timestep>
    <timestep time="39.00">
        <vehicle id="background.0" x="297.43" y="-1.60" angle="90.00" type="human" speed="11.16" pos="297.43" lane="e0_0" slope="0.00"/>
        <vehicle id="background.1" x="22.15" y="-1.60" angle="90.00" type="human" speed="12.02" pos="22.15" lane="e0_0" slope="0.00"/>
        <vehicle id="ego" x="43.73" y="-1.60" angle="90.00" type="ego_type" speed="11.26" pos="43.73" lane="e0_0" slope="0.00"/>
    </timestep>
    <timestep time="39.50">
        <vehicle id="background.0" x="302.73" y="-1.60" angle="90.00" type="human" speed="10.79" pos="2.73" lane="e1_0" slope="0.00"/>
        <vehicle id="background.1" x="28.08" y="-1.60" angle="90.00" type="human" speed="11.86" pos="28.08" lane="e0_0" slope="0.00"/>
        <vehicle id="ego" x="49.36" y="-1.60" angle="90.00" type="ego_type" speed="11.26" pos="49.36" lane="e0_0" slope="0.00"/>
    </timestep>
    <timestep time="40.00">
        <vehicle id="background.0" x="308.19" y="-1.60" angle="90.00" type="human" speed="10.92" pos="8.19" lane="e1_0" slope="0.00"/>
        <vehicle id="background.1" x="33.90" y="-1.60" angle="90.00" type="human" speed="11.64" pos="33.90" lane="e0_0" slope="0.00"/>
        <vehicle id="ego" x="54.99" y="-1.60" angle="90.00" type="ego_type" speed="11.26" pos="54.99" lane="e0_0" slope="0.00"/>
    </timestep>
    <timestep time="40.50">
        <vehicle id="background.0" x="313.73" y="-1.60" angle="90.00" type="human" speed="11.10" pos="13.73" lane="e1_0" slope="0.00"/>
        <vehicle id="background.1" x="39.70" y="-1.60" angle="90.00" type="human" speed="11.60" pos="39.70" lane="e0_0" slope="0.00"/>
        <vehicle id="ego" x="60.62" y="-1.60" angle="90.00" type="ego_type" speed="11.26" pos="60.62" lane="e0_0" slope="0.00"/>
    </timestep>
    <timestep time="41.00">
        <vehicle id="background.0" x="319.35" y="-1.60" angle="90.00" type="human" speed="11.24" pos="19.35" lane="e1_0" slope="0.00"/>
        <vehicle id="background.1" x="45.49" y="-1.60" angle="90.00" type="human" speed="11.58" pos="45.49" lane="e0_0" slope="0.00"/>
        <vehicle id="ego" x="66.25" y="-1.60" angle="90.00" type="ego_type" speed="11.26" pos="66.25" lane="e0_0" slope="0.00"/>
    </timestep>
    <timestep time="41.50">
        <vehicle id="background.0" x="324.86" y="-1.60" angle="90.00" type="human" speed="11.00" pos="24.86" lane="e1_0" slope="0.00"/>
        <vehicle id="background.1" x="51.35" y="-1.60" angle="90.00" type="human" speed="11.72" pos="51.35" lane="e0_0" slope="0.00"/>
        <vehicle id="ego" x="71.88" y="-1.60" angle="90.00" type="ego_type" speed="11.26" pos="71.88" lane="e0_0" slope="0.00"/>
    </timestep>
    <timestep time="42.00">
        <vehicle id="background.0" x="330.40" y="-1.60" angle="90.00" type="human" speed="11.09" pos="30.40" lane="e1_0" slope="0.00"/>
        <vehicle id="background.1" x="57.06" y="-1.60" angle="90.00" type="human" speed="11.42" pos="57.06" lane="e0_0" slope="0.00"/>
        <vehicle id="ego" x="77.51" y="-1.60" angle="90.00" type="ego_type" speed="11.26" pos="77.51" lane="e0_0" slope="0.00"/>
    </timestep>
    <timestep time="42.50">
        <vehicle id="background.0" x="335.79" y="-1.60" angle="90.00" type="human" speed="10.79" pos="35.79" lane="e1_0" slope="0.00"/>
        <vehicle id="background.1" x="62.71" y="-1.60" angle="90.00" type="human" speed="11.30" pos="62.71" lane="e0_0" slope="0.00"/>
        <vehicle id="ego" x="83.14" y="-1.60" angle="90.00" type="ego_type" speed="11.26" pos="83.14" lane="e0_0" slope="0.00"/>
    </timestep>
    <timestep time="43.00">
        <vehicle id="background.0" x="341.26" y="-1.60" angle="90.00" type="human" speed="10.94" pos="41.26" lane="e1_0" slope="0.00"/>
        <vehicle id="background.1" x="68.38" y="-1.60" angle="90.00" type="human" speed="11.34" pos="68.38" lane="e0_0" slope="0.00"/>
        <vehicle id="ego" x="88.77" y="-1.60" angle="90.00" type="ego_type" speed="11.26" pos="88.77" lane="e0_0" slope="0.00"/>
    </timestep>
    <timestep time="43.50">
        <vehicle id="background.0" x="346.75" y="-1.60" angle="90.00" type="human" speed="10.99" pos="46.75" lane="e1_0" slope="0.00"/>
        <vehicle id="background.1" x="74.13" y="-1.60" angle="90.00" type="human" speed="11.51" pos="74.13" lane="e0_0" slope="0.00"/>
        <vehicle id="ego" x="94.40" y="-1.60" angle="90.00" type="ego_type" speed="11.26" pos="94.40" lane="e0_0" slope="0.00"/>
    </timestep>
    <timestep time="44.00">
        <vehicle id="background.1" x="79.75" y="-1.60" angle="90.00" type="human" speed="11.23" pos="79.75" lane="e0_0" slope="0.00"/>
        <vehicle id="ego" x="100.03" y="-1.60" angle="90.00" type="ego_type" speed="11.26" pos="100.03" lane="e0_0" slope="0.00"/>
    </timestep>
    <timestep time="44.50">
        <vehicle id="background.1" x="85.40" y="-1.60" angle="90.00" type="human" speed="11.30" pos="85.40" lane="e0_0" slope="0.00"/>
        <vehicle id="ego" x="105.66" y="-1.60" angle="90.00" type="ego_type" speed="11.26" pos="105.66" lane="e0_0" slope="0.00"/>
    </timestep>
    <timestep time="45.00">
        <vehicle id="background.1" x="91.06" y="-1.60" angle="90.00" type="human" speed="11.32" pos="91.06" lane="e0_0" slope="0.00"/>
        <vehicle id="ego" x="111.29" y="-1.60" angle="90.00" type="ego_type" speed="11.26" pos="111.29" lane="e0_0" slope="0.00"/>
    </timestep>
    <timestep time="45.50">
        <vehicle id="background.1" x="96.87" y="-1.60" angle="90.00" type="human" speed="11.62" pos="96.87" lane="e0_0" slope="0.00"/>
        <vehicle id="background.2" x="5.10" y="-1.60" angle="90.00" type="human" speed="13.89" pos="5.10" lane="e0_0" slope="0.00"/>
        <vehicle id="ego" x="116.91" y="-1.60" angle="90.00" type="ego_type" speed="11.26" pos="116.91" lane="e0_0" slope="0.00"/>
    </timestep>
    <timestep time="46.00">
        <vehicle id="background.1" x="102.45" y="-1.60" angle="90.00" type="human" speed="11.17" pos="102.45" lane="e0_0" slope="0.00"/>
        <vehicle id="background.2" x="11.99" y="-1.60" angle="90.00" type="human" speed="13.78" pos="11.99" lane="e0_0" slope="0.00"/>
        <vehicle id="ego" x="122.54" y="-1.60" angle="90.00" type="ego_type" speed="11.26" pos="122.54" lane="e0_0" slope="0.00"/>
    </timestep>
    <timestep time="46.50">
        <vehicle id="background.1" x="108.10" y="-1.60" angle="90.00" type="human" speed="11.29" pos="108.10" lane="e0_0" slope="0.00"/>
        <vehicle id="background.2" x="18.86" y="-1.60" angle="90.00" type="human" speed="13.74" pos="18.86" lane="e0_0" slope="0.00"/>
        <vehicle id="ego" x="128.17" y="-1.60" angle="90.00" type="ego_type" speed="11.26" pos="128.17" lane="e0_0" slope="0.00"/>
    </timestep>
    <timestep time="47.00">
        <vehicle id="background.1" x="113.76" y="-1.60" angle="90.00" type="human" speed="11.33" pos="113.76" lane="e0_0" slope="0.00"/>
        <vehicle id="background.2" x="25.74" y="-1.60" angle="90.00" type="human" speed="13.75" pos="25.74" lane="e0_0" slope="0.00"/>
        <vehicle id="ego" x="133.80" y="-1.60" angle="90.00" type="ego_type" speed="11.26" pos="133.80" lane="e0_0" slope="0.00"/>
    </timestep>
    <timestep time="47.50">
        <vehicle id="background.1" x="119.35" y="-1.60" angle="90.00" type="human" speed="11.17" pos="119.35" lane="e0_0" slope="0.00"/>
        <vehicle id="background.2" x="32.62" y="-1.60" angle="90.00" type="human" speed="13.76" pos="32.62" lane="e0_0" slope="0.00"/>
        <vehicle id="ego" x="139.43" y="-1.60" angle="90.00" type="ego_type" speed="11.26" pos="139.43" lane="e0_0" slope="0.00"/>
    </timestep>
    <timestep time="48.00">
        <vehicle id="background.1" x="124.96" y="-1.60" angle="90.00" type="human" speed="11.22" pos="124.96" lane="e0_0" slope="0.00"/>
        <vehicle id="background.2" x="39.32" y="-1.60" angle="90.00" type="human" speed="13.40" pos="39.32" lane="e0_0" slope="0.00"/>
        <vehicle id="ego" x="145.06" y="-1.60" angle="90.00" type="ego_type" speed="11.26" pos="145.06" lane="e0_0" slope="0.00"/>
    </timestep>
    <timestep time="48.50">
        <vehicle id="background.1" x="130.65" y="-1.60" angle="90.00" type="human" speed="11.38" pos="130.65" lane="e0_0" slope="0.00"/>
        <vehicle id="background.2" x="46.21" y="-1.60" angle="90.00" type="human" speed="13.78" pos="46.21" lane="e0_0" slope="0.00"/>
        <vehicle id="ego" x="150.69" y="-1.60" angle="90.00" type="ego_type" speed="11.26" pos="150.69" lane="e0_0" slope="0.00"/>
    </timestep>
    <timestep time="49.00">
        <vehicle id="background.1" x="136.30" y="-1.60" angle="90.00" type="human" speed="11.30" pos="136.30" lane="e0_0" slope="0.00"/>
        <vehicle id="background.2" x="53.07" y="-1.60" angle="90.00" type="human" speed="13.72" pos="53.07" lane="e0_0" slope="0.00"/>
        <vehicle id="background.3" x="5.10" y="-1.60" angle="90.00" type="human" speed="13.89" pos="5.10" lane="e0_0" slope="0.00"/>
        <vehicle id="ego" x="156.32" y="-1.60" angle="90.00" type="ego_type" speed="11.26" pos="156.32" lane="e0_0" slope="0.00"/>
    </timestep>
    <timestep time="49.50">
        <vehicle id="background.1" x="141.89" y="-1.60" angle="90.00" type="human" speed="11.19" pos="141.89" lane="e0_0" slope="0.00"/>
        <vehicle id="background.2" x="59.99" y="-1.60" angle="90.00" type="human" speed="13.85" pos="59.99" lane="e0_0" slope="0.00"/>
        <vehicle id="background.3" x="11.94" y="-1.60" angle="90.00" type="human" speed="13.68" pos="11.94" lane="e0_0" slope="0.00"/>
        <vehicle id="ego" x="161.95" y="-1.60" angle="90.00" type="ego_type" speed="11.26" pos="161.95" lane="e0_0" slope="0.00"/>
    </timestep>
    <timestep time="50.00">
        <vehicle id="background.1" x="147.70" y="-1.60" angle="90.00" type="human" speed="11.61" pos="147.70" lane="e0_0" slope="0.00"/>
        <vehicle id="background.2" x="66.91" y="-1.60" angle="90.00" type="human" speed="13.83" pos="66.91" lane="e0_0" slope="0.00"/>
        <vehicle id="background.3" x="18.88" y="-1.60" angle="90.00" type="human" speed="13.88" pos="18.88" lane="e0_0" slope="0.00"/>
        <vehicle id="ego" x="167.58" y="-1.60" angle="90.00" type="ego_type" speed="11.26" pos="167.58" lane="e0_0" slope="0.00"/>
    </timestep>
    <timestep time="50.50">
        <vehicle id="background.1" x="153.35" y="-1.60" angle="90.00" type="human" speed="11.32" pos="153.35" lane="e0_0" slope="0.00"/>
        <vehicle id="background.2" x="73.72" y="-1.60" angle="90.00" type="human" speed="13.62" pos="73.72" lane="e0_0" slope="0.00"/>
        <vehicle id="background.3" x="25.74" y="-1.60" angle="90.00" type="human" speed="13.72" pos="25.74" lane="e0_0" slope="0.00"/>
        <vehicle id="ego" x="173.21" y="-1.60" angle="90.00" type="ego_type" speed="11.26" pos="173.21" lane="e0_0" slope="0.00"/>
    </timestep>
    <timestep time="51.00">
        <vehicle id="background.1" x="159.02" y="-1.60" angle="90.00" type="human" speed="11.34" pos="159.02" lane="e0_0" slope="0.00"/>
        <vehicle id="background.2" x="80.52" y="-1.60" angle="90.00" type="human" speed="13.60" pos="80.52" lane="e0_0" slope="0.00"/>
        <vehicle id="background.3" x="32.52" y="-1.60" angle="90.00" type="human" speed="13.56" pos="32.52" lane="e0_0" slope="0.00"/>
        <vehicle id="ego" x="178.84" y="-1.60" angle="90.00" type="ego_type" speed="11.26" pos="178.84" lane="e0_0" slope="0.00"/>
    </timestep>
    <timestep time="51.50">
        <vehicle id="background.1" x="164.62" y="-1.60" angle="90.00" type="human" speed="11.20" pos="164.62" lane="e0_0" slope="0.00"/>
        <vehicle id="background.2" x="87.23" y="-1.60" angle="90.00" type="human" speed="13.43" pos="87.23" lane="e0_0" slope="0.00"/>
        <vehicle id="background.3" x="39.28" y="-1.60" angle="90.00" type="human" speed="13.53" pos="39.28" lane="e0_0" slope="0.00"/>
        <vehicle id="ego" x="184.47" y="-1.60" angle="90.00" type="ego_type" speed="11.26" pos="184.47" lane="e0_0" slope="0.00"/>
    </timestep>
    <timestep time="52.00">
        <vehicle id="background.1" x="170.36" y="-1.60" angle="90.00" type="human" speed="11.47" pos="170.36" lane="e0_0" slope="0.00"/>
        <vehicle id="background.2" x="94.11" y="-1.60" angle="90.00" type="human" speed="13.76" pos="94.11" lane="e0_0" slope="0.00"/>
        <vehicle id="background.3" x="46.16" y="-1.60" angle="90.00" type="human" speed="13.76" pos="46.16" lane="e0_0" slope="0.00"/>
        <vehicle id="ego" x="190.10" y="-1.60" angle="90.00" type="ego_type" speed="11.26" pos="190.10" lane="e0_0" slope="0.00"/>
    </timestep>
    <timestep time="52.50">
        <vehicle id="background.1" x="176.11" y="-1.60" angle="90.00" type="human" speed="11.51" pos="176.11" lane="e0_0" slope="0.00"/>
        <vehicle id="background.2" x="100.82" y="-1.60" angle="90.00" type="human" speed="13.41" pos="100.82" lane="e0_0" slope="0.00"/>
        <vehicle id="background.3" x="52.91" y="-1.60" angle="90.00" type="human" speed="13.49" pos="52.91" lane="e0_0" slope="0.00"/>
        <vehicle id="ego" x="195.73" y="-1.60" angle="90.00" type="ego_type" speed="11.26" pos="195.73" lane="e0_0" slope="0.00"/>
    </timestep>
    <timestep time="53.00">
        <vehicle id="background.1" x="181.71" y="-1.60" angle="90.00" type="human" speed="11.20" pos="181.71" lane="e0_0" slope="0.00"/>
        <vehicle id="background.2" x="107.58" y="-1.60" angle="90.00" type="human" speed="13.53" pos="107.58" lane="e0_0" slope="0.00"/>
        <vehicle id="background.3" x="59.70" y="-1.60" angle="90.00" type="human" speed="13.59" pos="59.70" lane="e0_0" slope="0.00"/>
        <vehicle id="background.4" x="5.10" y="-1.60" angle="90.00" type="human" speed="13.89" pos="5.10" lane="e0_0" slope="0.00"/>
        <vehicle id="ego" x="201.36" y="-1.60" angle="90.00" type="ego_type" speed="11.26" pos="201.36" lane="e0_0" slope="0.00"/>
    </timestep>
    <timestep time="53.50">
        <vehicle id="background.1" x="187.44" y="-1.60" angle="90.00" type="human" speed="11.45" pos="187.44" lane="e0_0" slope="0.00"/>
        <vehicle id="background.2" x="114.30" y="-1.60" angle="90.00" type="human" speed="13.42" pos="114.30" lane="e0_0" slope="0.00"/>
        <vehicle id="background.3" x="66.47" y="-1.60" angle="90.00" type="human" speed="13.53" pos="66.47" lane="e0_0" slope="0.00"/>
        <vehicle id="background.4" x="11.83" y="-1.60" angle="90.00" type="human" speed="13.46" pos="11.83" lane="e0_0" slope="0.00"/>
        <vehicle id="ego" x="206.99" y="-1.60" angle="90.00" type="ego_type" speed="11.26" pos="206.99" lane="e0_0" slope="0.00"/>
    </timestep>
    <timestep time="54.00">
        <vehicle id="background.1" x="193.08" y="-1.60" angle="90.00" type="human" speed="11.27" pos="193.08" lane="e0_0" slope="0.00"/>
        <vehicle id="background.2" x="121.13" y="-1.60" angle="90.00" type="human" speed="13.68" pos="121.13" lane="e0_0" slope="0.00"/>
        <vehicle id="background.3" x="73.41" y="-1.60" angle="90.00" type="human" speed="13.89" pos="73.41" lane="e0_0" slope="0.00"/>
        <vehicle id="background.4" x="18.57" y="-1.60" angle="90.00" type="human" speed="13.47" pos="18.57" lane="e0_0" slope="0.00"/>
        <vehicle id="ego" x="212.62" y="-1.60" angle="90.00" type="ego_type" speed="11.26" pos="212.62" lane="e0_0" slope="0.00"/>
    </timestep>
    <timestep time="54.50">
        <vehicle id="background.1" x="198.76" y="-1.60" angle="90.00" type="human" speed="11.38" pos="198.76" lane="e0_0" slope="0.00"/>
        <vehicle id="background.2" x="128.08" y="-1.60" angle="90.00" type="human" speed="13.88" pos="128.08" lane="e0_0" slope="0.00"/>
        <vehicle id="background.3" x="80.21" y="-1.60" angle="90.00" type="human" speed="13.60" pos="80.21" lane="e0_0" slope="0.00"/>
        <vehicle id="background.4" x="25.36" y="-1.60" angle="90.00" type="human" speed="13.60" pos="25.36" lane="e0_0" slope="0.00"/>
        <vehicle id="ego" x="218.25" y="-1.60" angle="90.00" type="ego_type" speed="11.26" pos="218.25" lane="e0_0" slope="0.00"/>
    </timestep>
    <timestep time="55.00">
        <vehicle id="background.1" x="204.40" y="-1.60" angle="90.00" type="human" speed="11.27" pos="204.40" lane="e0_0" slope="0.00"/>
        <vehicle id="background.2" x="134.97" y="-1.60" angle="90.00" type="human" speed="13.78" pos="134.97" lane="e0_0" slope="0.00"/>
        <vehicle id="background.3" x="87.13" y="-1.60" angle="90.00" type="human" speed="13.83" pos="87.13" lane="e0_0" slope="0.00"/>
        <vehicle id="background.4" x="32.17" y="-1.60" angle="90.00" type="human" speed="13.61" pos="32.17" lane="e0_0" slope="0.00"/>