<?xml version="1.0" encoding="UTF-8"?>

<!-- generated on 2026-05-14 17:04:35 by Eclipse SUMO sumo Version 1.24.0
<sumoConfiguration xmlns:xsi="http://www.w3.org/2001/XMLSchema-instance" xsi:noNamespaceSchemaLocation="http://sumo.dlr.de/xsd/sumoConfiguration.xsd">

    <input>
        <net-file value="scenarios/simple_arterial/simple_arterial.net.xml"/>
        <route-files value="scenarios/simple_arterial/simple_arterial.rou.xml"/>
        <additional-files value="scenarios/simple_arterial/simple_arterial.tls.xml"/>
    </input>

    <output>
        <fcd-output value="runs/fcd_expert_default/episode_00041_seed_83.fcd.xml"/>
    </output>

    <time>
        <begin value="0"/>
        <end value="900"/>
        <step-length value="0.5"/>
    </time>

    <report>
        <no-warnings value="true"/>
    </report>

    <traci_server>
        <remote-port value="24542"/>
    </traci_server>

    <random_number>
        <seed value="83"/>
    </random_number>

</sumoConfiguration>
-->

<fcd-export xmlns:xsi="http://www.w3.org/2001/XMLSchema-instance" xsi:noNamespaceSchemaLocation="http://sumo.dlr.de/xsd/fcd_file.xsd">
    <timestep time="0.00"/>
    <timestep time="0.50"/>
    <timestep time="1.00"/>
    <timestep time="1.50"/>
    <timestep time="2.00"/>
    <timestep time="2.50"/>
    <timestep time="3.00"/>
    <timestep time="3.50"/>
    <timestep time="4.00"/>
    <timestep time="4.50"/>
    <timestep time="5.00"/>
    <timestep time="5.50"/>
    <timestep time="6.00"/>
    <timestep time="6.50"/>
    <timestep time="7.00"/>
    <timestep time="7.50"/>
    <timestep time="8.00"/>
    <timestep time="8.50">
        <vehicle id="background.0" x="5.10" y="-1.60" angle="90.00" type="human" speed="11.67" pos="5.10" lane="e0_0" slope="0.00"/>
    </timestep>
    <timestep time="9.00">
        <vehicle id="background.0" x="10.92" y="-1.60" angle="90.00" type="human" speed="11.64" pos="10.92" lane="e0_0" slope="0.00"/>
    </timestep>
    <timestep time="9.50">
        <vehicle id="background.0" x="16.62" y="-1.60" angle="90.00" type="human" speed="11.39" pos="16.62" lane="e0_0" slope="0.00"/>
        <vehicle id="background.1" x="5.10" y="-1.60" angle="90.00" type="human" speed="8.94" pos="5.10" lane="e0_0" slope="0.00"/>
    </timestep>
    <timestep time="10.00">
        <vehicle id="background.0" x="22.36" y="-1.60" angle="90.00" type="human" speed="11.48" pos="22.36" lane="e0_0" slope="0.00"/>
        <vehicle id="background.1" x="9.45" y="-1.60" angle="90.00" type="human" speed="8.70" pos="9.45" lane="e0_0" slope="0.00"/>
    </timestep>
    <timestep time="10.50">
        <vehicle id="background.0" x="28.13" y="-1.60" angle="90.00" type="human" speed="11.55" pos="28.13" lane="e0_0" slope="0.00"/>
        <vehicle id="background.1" x="14.12" y="-1.60" angle="90.00" type="human" speed="9.34" pos="14.12" lane="e0_0" slope="0.00"/>
    </timestep>
    <timestep time="11.00">
        <vehicle id="background.0" x="33.81" y="-1.60" angle="90.00" type="human" speed="11.35" pos="33.81" lane="e0_0" slope="0.00"/>
        <vehicle id="background.1" x="18.99" y="-1.60" angle="90.00" type="human" speed="9.73" pos="18.99" lane="e0_0" slope="0.00"/>
    </timestep>
    <timestep time="11.50">
        <vehicle id="background.0" x="39.39" y="-1.60" angle="90.00" type="human" speed="11.17" pos="39.39" lane="e0_0" slope="0.00"/>
        <vehicle id="background.1" x="23.82" y="-1.60" angle="90.00" type="human" speed="9.66" pos="23.82" lane="e0_0" slope="0.00"/>
    </timestep>
    <timestep time="12.00">
        <vehicle id="background.0" x="45.19" y="-1.60" angle="90.00" type="human" speed="11.60" pos="45.19" lane="e0_0" slope="0.00"/>
        <vehicle id="background.1" x="28.82" y="-1.60" angle="90.00" type="human" speed="10.00" pos="28.82" lane="e0_0" slope="0.00"/>
    </timestep>
    <timestep time="12.50">
        <vehicle id="background.0" x="50.99" y="-1.60" angle="90.00" type="human" speed="11.58" pos="50.99" lane="e0_0" slope="0.00"/>
        <vehicle id="background.1" x="34.17" y="-1.60" angle="90.00" type="human" speed="10.70" pos="34.17" lane="e0_0" slope="0.00"/>
    </timestep>
    <timestep time="13.00">
        <vehicle id="background.0" x="56.75" y="-1.60" angle="90.00" type="human" speed="11.54" pos="56.75" lane="e0_0" slope="0.00"/>
        <vehicle id="background.1" x="39.38" y="-1.60" angle="90.00" type="human" speed="10.42" pos="39.38" lane="e0_0" slope="0.00"/>
    </timestep>
    <timestep time="13.50">
        <vehicle id="background.0" x="62.48" y="-1.60" angle="90.00" type="human" speed="11.46" pos="62.48" lane="e0_0" slope="0.00"/>
        <vehicle id="background.1" x="44.72" y="-1.60" angle="90.00" type="human" speed="10.68" pos="44.72" lane="e0_0" slope="0.00"/>
    </timestep>
    <timestep time="14.00">
        <vehicle id="background.0" x="68.28" y="-1.60" angle="90.00" type="human" speed="11.60" pos="68.28" lane="e0_0" slope="0.00"/>
        <vehicle id="background.1" x="50.22" y="-1.60" angle="90.00" type="human" speed="11.01" pos="50.22" lane="e0_0" slope="0.00"/>
    </timestep>
    <timestep time="14.50">
        <vehicle id="background.0" x="74.05" y="-1.60" angle="90.00" type="human" speed="11.52" pos="74.05" lane="e0_0" slope="0.00"/>
        <vehicle id="background.1" x="55.64" y="-1.60" angle="90.00" type="human" speed="10.84" pos="55.64" lane="e0_0" slope="0.00"/>
    </timestep>
    <timestep time="15.00">
        <vehicle id="background.0" x="79.76" y="-1.60" angle="90.00" type="human" speed="11.42" pos="79.76" lane="e0_0" slope="0.00"/>
        <vehicle id="background.1" x="61.14" y="-1.60" angle="90.00" type="human" speed="10.99" pos="61.14" lane="e0_0" slope="0.00"/>
    </timestep>
    <timestep time="15.50">
        <vehicle id="background.0" x="85.35" y="-1.60" angle="90.00" type="human" speed="11.18" pos="85.35" lane="e0_0" slope="0.00"/>
        <vehicle id="background.1" x="66.79" y="-1.60" angle="90.00" type="human" speed="11.30" pos="66.79" lane="e0_0" slope="0.00"/>
    </timestep>
    <timestep time="16.00">
        <vehicle id="background.0" x="91.11" y="-1.60" angle="90.00" type="human" speed="11.52" pos="91.11" lane="e0_0" slope="0.00"/>
        <vehicle id="background.1" x="72.17" y="-1.60" angle="90.00" type="human" speed="10.76" pos="72.17" lane="e0_0" slope="0.00"/>
    </timestep>
    <timestep time="16.50">
        <vehicle id="background.0" x="96.78" y="-1.60" angle="90.00" type="human" speed="11.34" pos="96.78" lane="e0_0" slope="0.00"/>
        <vehicle id="background.1" x="77.91" y="-1.60" angle="90.00" type="human" speed="11.49" pos="77.91" lane="e0_0" slope="0.00"/>
    </timestep>
    <timestep time="17.00">
        <vehicle id="background.0" x="102.48" y="-1.60" angle="90.00" type="human" speed="11.40" pos="102.48" lane="e0_0" slope="0.00"/>
        <vehicle id="background.1" x="83.53" y="-1.60" angle="90.00" type="human" speed="11.25" pos="83.53" lane="e0_0" slope="0.00"/>
    </timestep>
    <timestep time="17.50">
        <vehicle id="background.0" x="108.09" y="-1.60" angle="90.00" type="human" speed="11.22" pos="108.09" lane="e0_0" slope="0.00"/>
        <vehicle id="background.1" x="89.11" y="-1.60" angle="90.00" type="human" speed="11.15" pos="89.11" lane="e0_0" slope="0.00"/>
    </timestep>
    <timestep time="18.00">
        <vehicle id="background.0" x="113.71" y="-1.60" angle="90.00" type="human" speed="11.24" pos="113.71" lane="e0_0" slope="0.00"/>
        <vehicle id="background.1" x="94.66" y="-1.60" angle="90.00" type="human" speed="11.09" pos="94.66" lane="e0_0" slope="0.00"/>
    </timestep>
    <timestep time="18.50">
        <vehicle id="background.0" x="119.31" y="-1.60" angle="90.00" type="human" speed="11.20" pos="119.31" lane="e0_0" slope="0.00"/>
        <vehicle id="background.1" x="100.16" y="-1.60" angle="90.00" type="human" speed="11.01" pos="100.16" lane="e0_0" slope="0.00"/>
    </timestep>
    <timestep time="19.00">
        <vehicle id="background.0" x="125.11" y="-1.60" angle="90.00" type="human" speed="11.61" pos="125.11" lane="e0_0" slope="0.00"/>
        <vehicle id="background.1" x="105.73" y="-1.60" angle="90.00" type="human" speed="11.13" pos="105.73" lane="e0_0" slope="0.00"/>
    </timestep>
    <timestep time="19.50">
        <vehicle id="background.0" x="130.79" y="-1.60" angle="90.00" type="human" speed="11.36" pos="130.79" lane="e0_0" slope="0.00"/>
        <vehicle id="background.1" x="111.45" y="-1.60" angle="90.00" type="human" speed="11.44" pos="111.45" lane="e0_0" slope="0.00"/>
    </timestep>
    <timestep time="20.00">
        <vehicle id="background.0" x="136.58" y="-1.60" angle="90.00" type="human" speed="11.58" pos="136.58" lane="e0_0" slope="0.00"/>
        <vehicle id="background.1" x="116.98" y="-1.60" angle="90.00" type="human" speed="11.05" pos="116.98" lane="e0_0" slope="0.00"/>
    </timestep>
    <timestep time="20.50">
        <vehicle id="background.0" x="142.40" y="-1.60" angle="90.00" type="human" speed="11.63" pos="142.40" lane="e0_0" slope="0.00"/>
        <vehicle id="background.1" x="122.75" y="-1.60" angle="90.00" type="human" speed="11.54" pos="122.75" lane="e0_0" slope="0.00"/>
    </timestep>
    <timestep time="21.00">
        <vehicle id="background.0" x="147.98" y="-1.60" angle="90.00" type="human" speed="11.17" pos="147.98" lane="e0_0" slope="0.00"/>
        <vehicle id="background.1" x="128.50" y="-1.60" angle="90.00" type="human" speed="11.50" pos="128.50" lane="e0_0" slope="0.00"/>
        <vehicle id="background.2" x="5.10" y="-1.60" angle="90.00" type="human" speed="13.89" pos="5.10" lane="e0_0" slope="0.00"/>
    </timestep>
    <timestep time="21.50">
        <vehicle id="background.0" x="153.73" y="-1.60" angle="90.00" type="human" speed="11.49" pos="153.73" lane="e0_0" slope="0.00"/>
        <vehicle id="background.1" x="134.00" y="-1.60" angle="90.00" type="human" speed="11.02" pos="134.00" lane="e0_0" slope="0.00"/>
        <vehicle id="background.2" x="11.84" y="-1.60" angle="90.00" type="human" speed="13.47" pos="11.84" lane="e0_0" slope="0.00"/>
    </timestep>
    <timestep time="22.00">
        <vehicle id="background.0" x="159.42" y="-1.60" angle="90.00" type="human" speed="11.38" pos="159.42" lane="e0_0" slope="0.00"/>
        <vehicle id="background.1" x="139.69" y="-1.60" angle="90.00" type="human" speed="11.38" pos="139.69" lane="e0_0" slope="0.00"/>
        <vehicle id="background.2" x="18.60" y="-1.60" angle="90.00" type="human" speed="13.53" pos="18.60" lane="e0_0" slope="0.00"/>
    </timestep>
    <timestep time="22.50">
        <vehicle id="background.0" x="165.20" y="-1.60" angle="90.00" type="human" speed="11.56" pos="165.20" lane="e0_0" slope="0.00"/>
        <vehicle id="background.1" x="145.36" y="-1.60" angle="90.00" type="human" speed="11.34" pos="145.36" lane="e0_0" slope="0.00"/>
        <vehicle id="background.2" x="25.30" y="-1.60" angle="90.00" type="human" speed="13.40" pos="25.30" lane="e0_0" slope="0.00"/>
    </timestep>
    <timestep time="23.00">
        <vehicle id="background.0" x="170.78" y="-1.60" angle="90.00" type="human" speed="11.17" pos="170.78" lane="e0_0" slope="0.00"/>
        <vehicle id="background.1" x="151.22" y="-1.60" angle="90.00" type="human" speed="11.71" pos="151.22" lane="e0_0" slope="0.00"/>
        <vehicle id="background.2" x="32.06" y="-1.60" angle="90.00" type="human" speed="13.51" pos="32.06" lane="e0_0" slope="0.00"/>
    </timestep>
    <timestep time="23.50">
        <vehicle id="background.0" x="176.48" y="-1.60" angle="90.00" type="human" speed="11.39" pos="176.48" lane="e0_0" slope="0.00"/>
        <vehicle id="background.1" x="156.72" y="-1.60" angle="90.00" type="human" speed="11.00" pos="156.72" lane="e0_0" slope="0.00"/>
        <vehicle id="background.2" x="38.93" y="-1.60" angle="90.00" type="human" speed="13.76" pos="38.93" lane="e0_0" slope="0.00"/>
    </timestep>
    <timestep time="24.00">
        <vehicle id="background.0" x="182.25" y="-1.60" angle="90.00" type="human" speed="11.55" pos="182.25" lane="e0_0" slope="0.00"/>
        <vehicle id="background.1" x="162.46" y="-1.60" angle="90.00" type="human" speed="11.48" pos="162.46" lane="e0_0" slope="0.00"/>
        <vehicle id="background.2" x="45.82" y="-1.60" angle="90.00" type="human" speed="13.76" pos="45.82" lane="e0_0" slope="0.00"/>
    </timestep>
    <timestep time="24.50">
        <vehicle id="background.0" x="188.00" y="-1.60" angle="90.00" type="human" speed="11.50" pos="188.00" lane="e0_0" slope="0.00"/>
        <vehicle id="background.1" x="168.17" y="-1.60" angle="90.00" type="human" speed="11.41" pos="168.17" lane="e0_0" slope="0.00"/>
        <vehicle id="background.2" x="52.72" y="-1.60" angle="90.00" type="human" speed="13.82" pos="52.72" lane="e0_0" slope="0.00"/>
    </timestep>
    <timestep time="25.00">
        <vehicle id="background.0" x="193.82" y="-1.60" angle="90.00" type="human" speed="11.62" pos="193.82" lane="e0_0" slope="0.00"/>
        <vehicle id="background.1" x="173.83" y="-1.60" angle="90.00" type="human" speed="11.33" pos="173.83" lane="e0_0" slope="0.00"/>
        <vehicle id="background.2" x="59.61" y="-1.60" angle="90.00" type="human" speed="13.78" pos="59.61" lane="e0_0" slope="0.00"/>
    </timestep>
    <timestep time="25.50">
        <vehicle id="background.0" x="199.61" y="-1.60" angle="90.00" type="human" speed="11.59" pos="199.61" lane="e0_0" slope="0.00"/>
        <vehicle id="background.1" x="179.73" y="-1.60" angle="90.00" type="human" speed="11.81" pos="179.73" lane="e0_0" slope="0.00"/>
        <vehicle id="background.2" x="66.43" y="-1.60" angle="90.00" type="human" speed="13.64" pos="66.43" lane="e0_0" slope="0.00"/>
    </timestep>
    <timestep time="26.00">
        <vehicle id="background.0" x="205.24" y="-1.60" angle="90.00" type="human" speed="11.27" pos="205.24" lane="e0_0" slope="0.00"/>
        <vehicle id="background.1" x="185.56" y="-1.60" angle="90.00" type="human" speed="11.65" pos="185.56" lane="e0_0" slope="0.00"/>
        <vehicle id="background.2" x="73.21" y="-1.60" angle="90.00" type="human" speed="13.55" pos="73.21" lane="e0_0" slope="0.00"/>
    </timestep>
    <timestep time="26.50">
        <vehicle id="background.0" x="211.03" y="-1.60" angle="90.00" type="human" speed="11.57" pos="211.03" lane="e0_0" slope="0.00"/>
        <vehicle id="background.1" x="191.30" y="-1.60" angle="90.00" type="human" speed="11.49" pos="191.30" lane="e0_0" slope="0.00"/>
        <vehicle id="background.2" x="80.12" y="-1.60" angle="90.00" type="human" speed="13.82" pos="80.12" lane="e0_0" slope="0.00"/>
    </timestep>
    <timestep time="27.00">
        <vehicle id="background.0" x="216.75" y="-1.60" angle="90.00" type="human" speed="11.45" pos="216.75" lane="e0_0" slope="0.00"/>
        <vehicle id="background.1" x="197.01" y="-1.60" angle="90.00" type="human" speed="11.41" pos="197.01" lane="e0_0" slope="0.00"/>
        <vehicle id="background.2" x="86.95" y="-1.60" angle="90.00" type="human" speed="13.67" pos="86.95" lane="e0_0" slope="0.00"/>
    </timestep>
    <timestep time="27.50">
        <vehicle id="background.0" x="222.34" y="-1.60" angle="90.00" type="human" speed="11.17" pos="222.34" lane="e0_0" slope="0.00"/>
        <vehicle id="background.1" x="202.82" y="-1.60" angle="90.00" type="human" speed="11.62" pos="202.82" lane="e0_0" slope="0.00"/>
        <vehicle id="background.2" x="93.82" y="-1.60" angle="90.00" type="human" speed="13.75" pos="93.82" lane="e0_0" slope="0.00"/>
        <vehicle id="background.3" x="5.10" y="-1.60" angle="90.00" type="human" speed="13.89" pos="5.10" lane="e0_0" slope="0.00"/>
    </timestep>
    <timestep time="28.00">
        <vehicle id="background.0" x="228.14" y="-1.60" angle="90.00" type="human" speed="11.61" pos="228.14" lane="e0_0" slope="0.00"/>
        <vehicle id="background.1" x="208.39" y="-1.60" angle="90.00" type="human" speed="11.14" pos="208.39" lane="e0_0" slope="0.00"/>
        <vehicle id="background.2" x="100.73" y="-1.60" angle="90.00" type="human" speed="13.81" pos="100.73" lane="e0_0" slope="0.00"/>
        <vehicle id="background.3" x="12.01" y="-1.60" angle="90.00" type="human" speed="13.83" pos="12.01" lane="e0_0" slope="0.00"/>
    </timestep>
    <timestep time="28.50">
        <vehicle id="background.0" x="233.79" y="-1.60" angle="90.00" type="human" speed="11.30" pos="233.79" lane="e0_0" slope="0.00"/>
        <vehicle id="background.1" x="214.27" y="-1.60" angle="90.00" type="human" speed="11.77" pos="214.27" lane="e0_0" slope="0.00"/>
        <vehicle id="background.2" x="107.64" y="-1.60" angle="90.00" type="human" speed="13.82" pos="107.64" lane="e0_0" slope="0.00"/>
        <vehicle id="background.3" x="18.92" y="-1.60" angle="90.00" type="human" speed="13.81" pos="18.92" lane="e0_0" slope="0.00"/>
        <vehicle id="ego" x="5.10" y="-1.60" angle="90.00" type="ego_type" speed="0.00" pos="5.10" lane="e0_0" slope="0.00"/>
    </timestep>
    <timestep time="29.00">
        <vehicle id="background.0" x="239.53" y="-1.60" angle="90.00" type="human" speed="11.48" pos="239.53" lane="e0_0" slope="0.00"/>
        <vehicle id="background.1" x="219.92" y="-1.60" angle="90.00" type="human" speed="11.29" pos="219.92" lane="e0_0" slope="0.00"/>
        <vehicle id="background.2" x="114.49" y="-1.60" angle="90.00" type="human" speed="13.70" pos="114.49" lane="e0_0" slope="0.00"/>
        <vehicle id="background.3" x="25.77" y="-1.60" angle="90.00" type="human" speed="13.70" pos="25.77" lane="e0_0" slope="0.00"/>
        <vehicle id="ego" x="5.60" y="-1.60" angle="90.00" type="ego_type" speed="1.00" pos="5.60" lane="e0_0" slope="0.00"/>
    </timestep>
    <timestep time="29.50">
        <vehicle id="background.0" x="245.35" y="-1.60" angle="90.00" type="human" speed="11.64" pos="245.35" lane="e0_0" slope="0.00"/>
        <vehicle id="background.1" x="225.56" y="-1.60" angle="90.00" type="human" speed="11.28" pos="225.56" lane="e0_0" slope="0.00"/>
        <vehicle id="background.2" x="121.28" y="-1.60" angle="90.00" type="human" speed="13.58" pos="121.28" lane="e0_0" slope="0.00"/>
        <vehicle id="background.3" x="32.62" y="-1.60" angle="90.00" type="human" speed="13.70" pos="32.62" lane="e0_0" slope="0.00"/>
        <vehicle id="ego" x="6.60" y="-1.60" angle="90.00" type="ego_type" speed="2.00" pos="6.60" lane="e0_0" slope="0.00"/>
    </timestep>
    <timestep time="30.00">
        <vehicle id="background.0" x="251.15" y="-1.60" angle="90.00" type="human" speed="11.59" pos="251.15" lane="e0_0" slope="0.00"/>
        <vehicle id="background.1" x="231.37" y="-1.60" angle="90.00" type="human" speed="11.62" pos="231.37" lane="e0_0" slope="0.00"/>
        <vehicle id="background.2" x="128.09" y="-1.60" angle="90.00" type="human" speed="13.62" pos="128.09" lane="e0_0" slope="0.00"/>
        <vehicle id="background.3" x="39.45" y="-1.60" angle="90.00" type="human" speed="13.66" pos="39.45" lane="e0_0" slope="0.00"/>
        <vehicle id="ego" x="8.10" y="-1.60" angle="90.00" type="ego_type" speed="3.00" pos="8.10" lane="e0_0" slope="0.00"/>
    </timestep>
    <timestep time="30.50">
        <vehicle id="background.0" x="256.84" y="-1.60" angle="90.00" type="human" speed="11.39" pos="256.84" lane="e0_0" slope="0.00"/>
        <vehicle id="background.1" x="237.16" y="-1.60" angle="90.00" type="human" speed="11.58" pos="237.16" lane="e0_0" slope="0.00"/>
        <vehicle id="background.2" x="134.80" y="-1.60" angle="90.00" type="human" speed="13.42" pos="134.80" lane="e0_0" slope="0.00"/>
        <vehicle id="background.3" x="46.31" y="-1.60" angle="90.00" type="human" speed="13.72" pos="46.31" lane="e0_0" slope="0.00"/>
        <vehicle id="ego" x="10.10" y="-1.60" angle="90.00" type="ego_type" speed="4.00" pos="10.10" lane="e0_0" slope="0.00"/>
    </timestep>
    <timestep time="31.00">
        <vehicle id="background.0" x="262.44" y="-1.60" angle="90.00" type="human" speed="11.19" pos="262.44" lane="e0_0" slope="0.00"/>
        <vehicle id="background.1" x="242.96" y="-1.60" angle="90.00" type="human" speed="11.61" pos="242.96" lane="e0_0" slope="0.00"/>
        <vehicle id="background.2" x="141.63" y="-1.60" angle="90.00" type="human" speed="13.66" pos="141.63" lane="e0_0" slope="0.00"/>
        <vehicle id="background.3" x="53.08" y="-1.60" angle="90.00" type="human" speed="13.54" pos="53.08" lane="e0_0" slope="0.00"/>
        <vehicle id="ego" x="12.60" y="-1.60" angle="90.00" type="ego_type" speed="5.00" pos="12.60" lane="e0_0" slope="0.00"/>
    </timestep>
    <timestep time="31.50">
        <vehicle id="background.0" x="268.07" y="-1.60" angle="90.00" type="human" speed="11.26" pos="268.07" lane="e0_0" slope="0.00"/>
        <vehicle id="background.1" x="248.49" y="-1.60" angle="90.00" type="human" speed="11.06" pos="248.49" lane="e0_0" slope="0.00"/>
        <vehicle id="background.2" x="148.42" y="-1.60" angle="90.00" type="human" speed="13.57" pos="148.42" lane="e0_0" slope="0.00"/>
        <vehicle id="background.3" x="60.01" y="-1.60" angle="90.00" type="human" speed="13.86" pos="60.01" lane="e0_0" slope="0.00"/>
        <vehicle id="ego" x="15.60" y="-1.60" angle="90.00" type="ego_type" speed="6.00" pos="15.60" lane="e0_0" slope="0.00"/>
    </timestep>
    <timestep time="32.00">
        <vehicle id="background.0" x="273.83" y="-1.60" angle="90.00" type="human" speed="11.51" pos="273.83" lane="e0_0" slope="0.00"/>
        <vehicle id="background.1" x="254.03" y="-1.60" angle="90.00" type="human" speed="11.08" pos="254.03" lane="e0_0" slope="0.00"/>
        <vehicle id="background.2" x="155.32" y="-1.60" angle="90.00" type="human" speed="13.81" pos="155.32" lane="e0_0" slope="0.00"/>
        <vehicle id="background.3" x="66.87" y="-1.60" angle="90.00" type="human" speed="13.71" pos="66.87" lane="e0_0" slope="0.00"/>
        <vehicle id="ego" x="19.10" y="-1.60" angle="90.00" type="ego_type" speed="7.00" pos="19.10" lane="e0_0" slope="0.00"/>
    </timestep>
    <timestep time="32.50">
        <vehicle id="background.0" x="279.61" y="-1.60" angle="90.00" type="human" speed="11.57" pos="279.61" lane="e0_0" slope="0.00"/>
        <vehicle id="background.1" x="259.88" y="-1.60" angle="90.00" type="human" speed="11.69" pos="259.88" lane="e0_0" slope="0.00"/>
        <vehicle id="background.2" x="162.26" y="-1.60" angle="90.00" type="human" speed="13.88" pos="162.26" lane="e0_0" slope="0.00"/>
        <vehicle id="background.3" x="73.60" y="-1.60" angle="90.00" type="human" speed="13.47" pos="73.60" lane="e0_0" slope="0.00"/>
        <vehicle id="ego" x="23.10" y="-1.60" angle="90.00" type="ego_type" speed="8.00" pos="23.10" lane="e0_0" slope="0.00"/>
    </timestep>
    <timestep time="33.00">
        <vehicle id="background.0" x="285.30" y="-1.60" angle="90.00" type="human" speed="11.38" pos="285.30" lane="e0_0" slope="0.00"/>
        <vehicle id="background.1" x="265.56" y="-1.60" angle="90.00" type="human" speed="11.36" pos="265.56" lane="e0_0" slope="0.00"/>
        <vehicle id="background.2" x="169.01" y="-1.60" angle="90.00" type="human" speed="13.49" pos="169.01" lane="e0_0" slope="0.00"/>
        <vehicle id="background.3" x="80.31" y="-1.60" angle="90.00" type="human" speed="13.41" pos="80.31" lane="e0_0" slope="0.00"/>
        <vehicle id="ego" x="27.60" y="-1.60" angle="90.00" type="ego_type" speed="9.00" pos="27.60" lane="e0_0" slope="0.00"/>
    </timestep>
    <timestep time="33.50">
        <vehicle id="background.0" x="291.13" y="-1.60" angle="90.00" type="human" speed="11.66" pos="291.13" lane="e0_0" slope="0.00"/>
        <vehicle id="background.1" x="271.22" y="-1.60" angle="90.00" type="human" speed="11.33" pos="271.22" lane="e0_0" slope="0.00"/>
        <vehicle id="background.2" x="175.88" y="-1.60" angle="90.00" type="human" speed="13.75" pos="175.88" lane="e0_0" slope="0.00"/>
        <vehicle id="background.3" x="87.01" y="-1.60" angle="90.00" type="human" speed="13.40" pos="87.01" lane="e0_0" slope="0.00"/>
        <vehicle id="ego" x="32.60" y="-1.60" angle="90.00" type="ego_type" speed="10.00" pos="32.60" lane="e0_0" slope="0.00"/>
    </timestep>
    <timestep time="34.00">
        <vehicle id="background.0" x="296.88" y="-1.60" angle="90.00" type="human" speed="11.49" pos="296.88" lane="e0_0" slope="0.00"/>
        <vehicle id="background.1" x="277.16" y="-1.60" angle="90.00" type="human" speed="11.87" pos="277.16" lane="e0_0" slope="0.00"/>
        <vehicle id="background.2" x="182.80" y="-1.60" angle="90.00" type="human" speed="13.83" pos="182.80" lane="e0_0" slope="0.00"/>
        <vehicle id="background.3" x="93.87" y="-1.60" angle="90.00" type="human" speed="13.72" pos="93.87" lane="e0_0" slope="0.00"/>
        <vehicle id="ego" x="38.10" y="-1.60" angle="90.00" type="ego_type" speed="11.00" pos="38.10" lane="e0_0" slope="0.00"/>
    </timestep>
    <timestep time="34.50">
        <vehicle id="background.0" x="302.50" y="-1.60" angle="90.00" type="human" speed="11.45" pos="2.50" lane="e1_0" slope="0.00"/>
        <vehicle id="background.1" x="282.95" y="-1.60" angle="90.00" type="human" speed="11.59" pos="282.95" lane="e0_0" slope="0.00"/>
        <vehicle id="background.2" x="189.70" y="-1.60" angle="90.00" type="human" speed="13.80" pos="189.70" lane="e0_0" slope="0.00"/>
        <vehicle id="background.3" x="100.81" y="-1.60" angle="90.00" type="human" speed="13.89" pos="100.81" lane="e0_0" slope="0.00"/>
        <vehicle id="ego" x="43.93" y="-1.60" angle="90.00" type="ego_type" speed="11.67" pos="43.93" lane="e0_0" slope="0.00"/>
    </timestep>
    <timestep time="35.00">
        <vehicle id="background.0" x="308.18" y="-1.60" angle="90.00" type="human" speed="11.36" pos="8.18" lane="e1_0" slope="0.00"/>
        <vehicle id="background.1" x="288.74" y="-1.60" angle="90.00" type="human" speed="11.58" pos="288.74" lane="e0_0" slope="0.00"/>
        <vehicle id="background.2" x="196.57" y="-1.60" angle="90.00" type="human" speed="13.75" pos="196.57" lane="e0_0" slope="0.00"/>
        <vehicle id="background.3" x="107.52" y="-1.60" angle="90.00" type="human" speed="13.41" pos="107.52" lane="e0_0" slope="0.00"/>
        <vehicle id="ego" x="49.77" y="-1.60" angle="90.00" type="ego_type" speed="11.67" pos="49.77" lane="e0_0" slope="0.00"/>
    </timestep>
    <timestep time="35.50">
        <vehicle id="background.0" x="313.79" y="-1.60" angle="90.00" type="human" speed="11.22" pos="13.79" lane="e1_0" slope="0.00"/>
        <vehicle id="background.1" x="294.40" y="-1.60" angle="90.00" type="human" speed="11.32" pos="294.40" lane="e0_0" slope="0.00"/>
        <vehicle id="background.2" x="203.40" y="-1.60" angle="90.00" type="human" speed="13.65" pos="203.40" lane="e0_0" slope="0.00"/>
        <vehicle id="background.3" x="114.30" y="-1.60" angle="90.00" type="human" speed="13.57" pos="114.30" lane="e0_0" slope="0.00"/>
        <vehicle id="ego" x="55.60" y="-1.60" angle="90.00" type="ego_type" speed="11.67" pos="55.60" lane="e0_0" slope="0.00"/>
    </timestep>
    <timestep time="36.00">
        <vehicle id="background.0" x="319.50" y="-1.60" angle="90.00" type="human" speed="11.41" pos="19.50" lane="e1_0" slope="0.00"/>
        <vehicle id="background.1" x="300.00" y="-1.60" angle="90.00" type="human" speed="11.30" pos="0.05" lane=":j1_0_0" slope="0.00"/>
        <vehicle id="background.2" x="210.26" y="-1.60" angle="90.00" type="human" speed="13.74" pos="210.26" lane="e0_0" slope="0.00"/>
        <vehicle id="background.3" x="121.21" y="-1.60" angle="90.00" type="human" speed="13.82" pos="121.21" lane="e0_0" slope="0.00"/>
        <vehicle id="ego" x="61.44" y="-1.60" angle="90.00" type="ego_type" speed="11.67" pos="61.44" lane="e0_0" slope="0.00"/>
    </timestep>
    <timestep time="36.50">
        <vehicle id="background.0" x="325.20" y="-1.60" angle="90.00" type="human" speed="11.40" pos="25.20" lane="e1_0" slope="0.00"/>
        <vehicle id="background.1" x="305.69" y="-1.60" angle="90.00" type="human" speed="11.46" pos="5.69" lane="e1_0" slope="0.00"/>
        <vehicle id="background.2" x="217.08" y="-1.60" angle="90.00" type="human" speed="13.64" pos="217.08" lane="e0_0" slope="0.00"/>
        <vehicle id="background.3" x="128.08" y="-1.60" angle="90.00" type="human" speed="13.75" pos="128.08" lane="e0_0" slope="0.00"/>
        <vehicle id="ego" x="67.27" y="-1.60" angle="90.00" type="ego_type" speed="11.67" pos="67.27" lane="e0_0" slope="0.00"/>
    </timestep>
    <timestep time="37.00">
        <vehicle id="background.0" x="330.96" y="-1.60" angle="90.00" type="human" speed="11.52" pos="30.96" lane="e1_0" slope="0.00"/>
        <vehicle id="background.1" x="311.46" y="-1.60" angle="90.00" type="human" speed="11.55" pos="11.46" lane="e1_0" slope="0.00"/>
        <vehicle id="background.2" x="223.96" y="-1.60" angle="90.00" type="human" speed="13.76" pos="223.96" lane="e0_0" slope="0.00"/>
        <vehicle id="background.3" x="134.80" y="-1.60" angle="90.00" type="human" speed="13.43" pos="134.80" lane="e0_0" slope="0.00"/>
        <vehicle id="ego" x="73.10" y="-1.60" angle="90.00" type="ego_type" speed="11.67" pos="73.10" lane="e0_0" slope="0.00"/>
    </timestep>
    <timestep time="37.50">
        <vehicle id="background.0" x="336.63" y="-1.60" angle="90.00" type="human" speed="11.34" pos="36.63" lane="e1_0" slope="0.00"/>
        <vehicle id="background.1" x="317.10" y="-1.60" angle="90.00" type="human" speed="11.28" pos="17.10" lane="e1_0" slope="0.00"/>
        <vehicle id="background.2" x="230.69" y="-1.60" angle="90.00" type="human" speed="13.45" pos="230.69" lane="e0_0" slope="0.00"/>
        <vehicle id="background.3" x="141.56" y="-1.60" angle="90.00" type="human" speed="13.53" pos="141.56" lane="e0_0" slope="0.00"/>
        <vehicle id="ego" x="78.94" y="-1.60" angle="90.00" type="ego_type" speed="11.67" pos="78.94" lane="e0_0" slope="0.00"/>
    </timestep>
    <timestep time="38.00">