<?xml version="1.0" encoding="UTF-8"?>

<!-- generated on 2026-05-14 17:04:56 by Eclipse SUMO sumo Version 1.24.0
<sumoConfiguration xmlns:xsi="http://www.w3.org/2001/XMLSchema-instance" xsi:noNamespaceSchemaLocation="http://sumo.dlr.de/xsd/sumoConfiguration.xsd">

    <input>
        <net-file value="scenarios/simple_arterial/simple_arterial.net.xml"/>
        <route-files value="scenarios/simple_arterial/simple_arterial.rou.xml"/>
        <additional-files value="scenarios/simple_arterial/simple_arterial.tls.xml"/>
    </input>

    <output>
        <fcd-output value="runs/fcd_expert_default/episode_00059_seed_101.fcd.xml"/>
    </output>

    <time>
        <begin value="0"/>
        <end value="900"/>
        <step-length value="0.5"/>
    </time>

    <report>
        <no-warnings value="true"/>
    </report>

    <traci_server>
        <remote-port value="24542"/>
    </traci_server>

    <random_number>
        <seed value="101"/>
    </random_number>

</sumoConfiguration>
-->

<fcd-export xmlns:xsi="http://www.w3.org/2001/XMLSchema-instance" xsi:noNamespaceSchemaLocation="http://sumo.dlr.de/xsd/fcd_file.xsd">
    <timestep time="0.00"/>
    <timestep time="0.50"/>
    <timestep time="1.00"/>
    <timestep time="1.50"/>
    <timestep time="2.00">
        <vehicle id="background.0" x="5.10" y="-1.60" angle="90.00" type="human" speed="13.89" pos="5.10" lane="e0_0" slope="0.00"/>
    </timestep>
    <timestep time="2.50">
        <vehicle id="background.0" x="11.90" y="-1.60" angle="90.00" type="human" speed="13.59" pos="11.90" lane="e0_0" slope="0.00"/>
    </timestep>
    <timestep time="3.00">
        <vehicle id="background.0" x="18.74" y="-1.60" angle="90.00" type="human" speed="13.69" pos="18.74" lane="e0_0" slope="0.00"/>
    </timestep>
    <timestep time="3.50">
        <vehicle id="background.0" x="25.52" y="-1.60" angle="90.00" type="human" speed="13.55" pos="25.52" lane="e0_0" slope="0.00"/>
        <vehicle id="background.1" x="5.10" y="-1.60" angle="90.00" type="human" speed="13.38" pos="5.10" lane="e0_0" slope="0.00"/>
    </timestep>
    <timestep time="4.00">
        <vehicle id="background.0" x="32.35" y="-1.60" angle="90.00" type="human" speed="13.66" pos="32.35" lane="e0_0" slope="0.00"/>
        <vehicle id="background.1" x="11.71" y="-1.60" angle="90.00" type="human" speed="13.23" pos="11.71" lane="e0_0" slope="0.00"/>
    </timestep>
    <timestep time="4.50">
        <vehicle id="background.0" x="39.21" y="-1.60" angle="90.00" type="human" speed="13.73" pos="39.21" lane="e0_0" slope="0.00"/>
        <vehicle id="background.1" x="18.29" y="-1.60" angle="90.00" type="human" speed="13.16" pos="18.29" lane="e0_0" slope="0.00"/>
    </timestep>
    <timestep time="5.00">
        <vehicle id="background.0" x="46.03" y="-1.60" angle="90.00" type="human" speed="13.63" pos="46.03" lane="e0_0" slope="0.00"/>
        <vehicle id="background.1" x="24.98" y="-1.60" angle="90.00" type="human" speed="13.37" pos="24.98" lane="e0_0" slope="0.00"/>
    </timestep>
    <timestep time="5.50">
        <vehicle id="background.0" x="52.93" y="-1.60" angle="90.00" type="human" speed="13.80" pos="52.93" lane="e0_0" slope="0.00"/>
        <vehicle id="background.1" x="31.58" y="-1.60" angle="90.00" type="human" speed="13.21" pos="31.58" lane="e0_0" slope="0.00"/>
    </timestep>
    <timestep time="6.00">
        <vehicle id="background.0" x="59.74" y="-1.60" angle="90.00" type="human" speed="13.63" pos="59.74" lane="e0_0" slope="0.00"/>
        <vehicle id="background.1" x="38.45" y="-1.60" angle="90.00" type="human" speed="13.73" pos="38.45" lane="e0_0" slope="0.00"/>
    </timestep>
    <timestep time="6.50">
        <vehicle id="background.0" x="66.63" y="-1.60" angle="90.00" type="human" speed="13.77" pos="66.63" lane="e0_0" slope="0.00"/>
        <vehicle id="background.1" x="45.20" y="-1.60" angle="90.00" type="human" speed="13.51" pos="45.20" lane="e0_0" slope="0.00"/>
    </timestep>
    <timestep time="7.00">
        <vehicle id="background.0" x="73.45" y="-1.60" angle="90.00" type="human" speed="13.65" pos="73.45" lane="e0_0" slope="0.00"/>
        <vehicle id="background.1" x="52.02" y="-1.60" angle="90.00" type="human" speed="13.63" pos="52.02" lane="e0_0" slope="0.00"/>
    </timestep>
    <timestep time="7.50">
        <vehicle id="background.0" x="80.16" y="-1.60" angle="90.00" type="human" speed="13.41" pos="80.16" lane="e0_0" slope="0.00"/>
        <vehicle id="background.1" x="58.75" y="-1.60" angle="90.00" type="human" speed="13.47" pos="58.75" lane="e0_0" slope="0.00"/>
    </timestep>
    <timestep time="8.00">
        <vehicle id="background.0" x="87.05" y="-1.60" angle="90.00" type="human" speed="13.77" pos="87.05" lane="e0_0" slope="0.00"/>
        <vehicle id="background.1" x="65.41" y="-1.60" angle="90.00" type="human" speed="13.30" pos="65.41" lane="e0_0" slope="0.00"/>
    </timestep>
    <timestep time="8.50">
        <vehicle id="background.0" x="93.74" y="-1.60" angle="90.00" type="human" speed="13.40" pos="93.74" lane="e0_0" slope="0.00"/>
        <vehicle id="background.1" x="72.11" y="-1.60" angle="90.00" type="human" speed="13.42" pos="72.11" lane="e0_0" slope="0.00"/>
    </timestep>
    <timestep time="9.00">
        <vehicle id="background.0" x="100.69" y="-1.60" angle="90.00" type="human" speed="13.88" pos="100.69" lane="e0_0" slope="0.00"/>
        <vehicle id="background.1" x="78.87" y="-1.60" angle="90.00" type="human" speed="13.50" pos="78.87" lane="e0_0" slope="0.00"/>
    </timestep>
    <timestep time="9.50">
        <vehicle id="background.0" x="107.56" y="-1.60" angle="90.00" type="human" speed="13.75" pos="107.56" lane="e0_0" slope="0.00"/>
        <vehicle id="background.1" x="85.72" y="-1.60" angle="90.00" type="human" speed="13.71" pos="85.72" lane="e0_0" slope="0.00"/>
    </timestep>
    <timestep time="10.00">
        <vehicle id="background.0" x="114.38" y="-1.60" angle="90.00" type="human" speed="13.64" pos="114.38" lane="e0_0" slope="0.00"/>
        <vehicle id="background.1" x="92.46" y="-1.60" angle="90.00" type="human" speed="13.48" pos="92.46" lane="e0_0" slope="0.00"/>
    </timestep>
    <timestep time="10.50">
        <vehicle id="background.0" x="121.29" y="-1.60" angle="90.00" type="human" speed="13.82" pos="121.29" lane="e0_0" slope="0.00"/>
        <vehicle id="background.1" x="99.30" y="-1.60" angle="90.00" type="human" speed="13.67" pos="99.30" lane="e0_0" slope="0.00"/>
    </timestep>
    <timestep time="11.00">
        <vehicle id="background.0" x="128.01" y="-1.60" angle="90.00" type="human" speed="13.45" pos="128.01" lane="e0_0" slope="0.00"/>
        <vehicle id="background.1" x="106.11" y="-1.60" angle="90.00" type="human" speed="13.63" pos="106.11" lane="e0_0" slope="0.00"/>
    </timestep>
    <timestep time="11.50">
        <vehicle id="background.0" x="134.82" y="-1.60" angle="90.00" type="human" speed="13.62" pos="134.82" lane="e0_0" slope="0.00"/>
        <vehicle id="background.1" x="112.89" y="-1.60" angle="90.00" type="human" speed="13.56" pos="112.89" lane="e0_0" slope="0.00"/>
    </timestep>
    <timestep time="12.00">
        <vehicle id="background.0" x="141.76" y="-1.60" angle="90.00" type="human" speed="13.87" pos="141.76" lane="e0_0" slope="0.00"/>
        <vehicle id="background.1" x="119.77" y="-1.60" angle="90.00" type="human" speed="13.75" pos="119.77" lane="e0_0" slope="0.00"/>
    </timestep>
    <timestep time="12.50">
        <vehicle id="background.0" x="148.49" y="-1.60" angle="90.00" type="human" speed="13.46" pos="148.49" lane="e0_0" slope="0.00"/>
        <vehicle id="background.1" x="126.68" y="-1.60" angle="90.00" type="human" speed="13.83" pos="126.68" lane="e0_0" slope="0.00"/>
        <vehicle id="background.2" x="5.10" y="-1.60" angle="90.00" type="human" speed="13.89" pos="5.10" lane="e0_0" slope="0.00"/>
    </timestep>
    <timestep time="13.00">
        <vehicle id="background.0" x="155.23" y="-1.60" angle="90.00" type="human" speed="13.49" pos="155.23" lane="e0_0" slope="0.00"/>
        <vehicle id="background.1" x="133.38" y="-1.60" angle="90.00" type="human" speed="13.40" pos="133.38" lane="e0_0" slope="0.00"/>
        <vehicle id="background.2" x="11.95" y="-1.60" angle="90.00" type="human" speed="13.70" pos="11.95" lane="e0_0" slope="0.00"/>
    </timestep>
    <timestep time="13.50">
        <vehicle id="background.0" x="162.17" y="-1.60" angle="90.00" type="human" speed="13.88" pos="162.17" lane="e0_0" slope="0.00"/>
        <vehicle id="background.1" x="140.15" y="-1.60" angle="90.00" type="human" speed="13.53" pos="140.15" lane="e0_0" slope="0.00"/>
        <vehicle id="background.2" x="18.74" y="-1.60" angle="90.00" type="human" speed="13.59" pos="18.74" lane="e0_0" slope="0.00"/>
    </timestep>
    <timestep time="14.00">
        <vehicle id="background.0" x="169.06" y="-1.60" angle="90.00" type="human" speed="13.78" pos="169.06" lane="e0_0" slope="0.00"/>
        <vehicle id="background.1" x="146.91" y="-1.60" angle="90.00" type="human" speed="13.51" pos="146.91" lane="e0_0" slope="0.00"/>
        <vehicle id="background.2" x="25.49" y="-1.60" angle="90.00" type="human" speed="13.48" pos="25.49" lane="e0_0" slope="0.00"/>
    </timestep>
    <timestep time="14.50">
        <vehicle id="background.0" x="175.94" y="-1.60" angle="90.00" type="human" speed="13.77" pos="175.94" lane="e0_0" slope="0.00"/>
        <vehicle id="background.1" x="153.62" y="-1.60" angle="90.00" type="human" speed="13.43" pos="153.62" lane="e0_0" slope="0.00"/>
        <vehicle id="background.2" x="32.38" y="-1.60" angle="90.00" type="human" speed="13.79" pos="32.38" lane="e0_0" slope="0.00"/>
    </timestep>
    <timestep time="15.00">
        <vehicle id="background.0" x="182.80" y="-1.60" angle="90.00" type="human" speed="13.71" pos="182.80" lane="e0_0" slope="0.00"/>
        <vehicle id="background.1" x="160.42" y="-1.60" angle="90.00" type="human" speed="13.60" pos="160.42" lane="e0_0" slope="0.00"/>
        <vehicle id="background.2" x="39.24" y="-1.60" angle="90.00" type="human" speed="13.72" pos="39.24" lane="e0_0" slope="0.00"/>
    </timestep>
    <timestep time="15.50">
        <vehicle id="background.0" x="189.52" y="-1.60" angle="90.00" type="human" speed="13.44" pos="189.52" lane="e0_0" slope="0.00"/>
        <vehicle id="background.1" x="167.12" y="-1.60" angle="90.00" type="human" speed="13.39" pos="167.12" lane="e0_0" slope="0.00"/>
        <vehicle id="background.2" x="46.06" y="-1.60" angle="90.00" type="human" speed="13.63" pos="46.06" lane="e0_0" slope="0.00"/>
    </timestep>
    <timestep time="16.00">
        <vehicle id="background.0" x="196.37" y="-1.60" angle="90.00" type="human" speed="13.70" pos="196.37" lane="e0_0" slope="0.00"/>
        <vehicle id="background.1" x="173.92" y="-1.60" angle="90.00" type="human" speed="13.61" pos="173.92" lane="e0_0" slope="0.00"/>
        <vehicle id="background.2" x="52.97" y="-1.60" angle="90.00" type="human" speed="13.82" pos="52.97" lane="e0_0" slope="0.00"/>
    </timestep>
    <timestep time="16.50">
        <vehicle id="background.0" x="203.18" y="-1.60" angle="90.00" type="human" speed="13.63" pos="203.18" lane="e0_0" slope="0.00"/>
        <vehicle id="background.1" x="180.75" y="-1.60" angle="90.00" type="human" speed="13.65" pos="180.75" lane="e0_0" slope="0.00"/>
        <vehicle id="background.2" x="59.68" y="-1.60" angle="90.00" type="human" speed="13.42" pos="59.68" lane="e0_0" slope="0.00"/>
    </timestep>
    <timestep time="17.00">
        <vehicle id="background.0" x="210.11" y="-1.60" angle="90.00" type="human" speed="13.84" pos="210.11" lane="e0_0" slope="0.00"/>
        <vehicle id="background.1" x="187.48" y="-1.60" angle="90.00" type="human" speed="13.46" pos="187.48" lane="e0_0" slope="0.00"/>
        <vehicle id="background.2" x="66.58" y="-1.60" angle="90.00" type="human" speed="13.81" pos="66.58" lane="e0_0" slope="0.00"/>
    </timestep>
    <timestep time="17.50">
        <vehicle id="background.0" x="217.01" y="-1.60" angle="90.00" type="human" speed="13.80" pos="217.01" lane="e0_0" slope="0.00"/>
        <vehicle id="background.1" x="194.35" y="-1.60" angle="90.00" type="human" speed="13.74" pos="194.35" lane="e0_0" slope="0.00"/>
        <vehicle id="background.2" x="73.40" y="-1.60" angle="90.00" type="human" speed="13.63" pos="73.40" lane="e0_0" slope="0.00"/>
    </timestep>
    <timestep time="18.00">
        <vehicle id="background.0" x="223.92" y="-1.60" angle="90.00" type="human" speed="13.82" pos="223.92" lane="e0_0" slope="0.00"/>
        <vehicle id="background.1" x="201.17" y="-1.60" angle="90.00" type="human" speed="13.64" pos="201.17" lane="e0_0" slope="0.00"/>
        <vehicle id="background.2" x="80.29" y="-1.60" angle="90.00" type="human" speed="13.78" pos="80.29" lane="e0_0" slope="0.00"/>
    </timestep>
    <timestep time="18.50">
        <vehicle id="background.0" x="230.77" y="-1.60" angle="90.00" type="human" speed="13.72" pos="230.77" lane="e0_0" slope="0.00"/>
        <vehicle id="background.1" x="207.98" y="-1.60" angle="90.00" type="human" speed="13.62" pos="207.98" lane="e0_0" slope="0.00"/>
        <vehicle id="background.2" x="87.21" y="-1.60" angle="90.00" type="human" speed="13.85" pos="87.21" lane="e0_0" slope="0.00"/>
    </timestep>
    <timestep time="19.00">
        <vehicle id="background.0" x="237.53" y="-1.60" angle="90.00" type="human" speed="13.52" pos="237.53" lane="e0_0" slope="0.00"/>
        <vehicle id="background.1" x="214.78" y="-1.60" angle="90.00" type="human" speed="13.60" pos="214.78" lane="e0_0" slope="0.00"/>
        <vehicle id="background.2" x="94.05" y="-1.60" angle="90.00" type="human" speed="13.68" pos="94.05" lane="e0_0" slope="0.00"/>
    </timestep>
    <timestep time="19.50">
        <vehicle id="background.0" x="244.38" y="-1.60" angle="90.00" type="human" speed="13.69" pos="244.38" lane="e0_0" slope="0.00"/>
        <vehicle id="background.1" x="221.70" y="-1.60" angle="90.00" type="human" speed="13.84" pos="221.70" lane="e0_0" slope="0.00"/>
        <vehicle id="background.2" x="100.77" y="-1.60" angle="90.00" type="human" speed="13.43" pos="100.77" lane="e0_0" slope="0.00"/>
    </timestep>
    <timestep time="20.00">
        <vehicle id="background.0" x="251.13" y="-1.60" angle="90.00" type="human" speed="13.51" pos="251.13" lane="e0_0" slope="0.00"/>
        <vehicle id="background.1" x="228.44" y="-1.60" angle="90.00" type="human" speed="13.49" pos="228.44" lane="e0_0" slope="0.00"/>
        <vehicle id="background.2" x="107.56" y="-1.60" angle="90.00" type="human" speed="13.59" pos="107.56" lane="e0_0" slope="0.00"/>
    </timestep>
    <timestep time="20.50">
        <vehicle id="background.0" x="258.04" y="-1.60" angle="90.00" type="human" speed="13.82" pos="258.04" lane="e0_0" slope="0.00"/>
        <vehicle id="background.1" x="235.26" y="-1.60" angle="90.00" type="human" speed="13.65" pos="235.26" lane="e0_0" slope="0.00"/>
        <vehicle id="background.2" x="114.33" y="-1.60" angle="90.00" type="human" speed="13.53" pos="114.33" lane="e0_0" slope="0.00"/>
    </timestep>
    <timestep time="21.00">
        <vehicle id="background.0" x="264.75" y="-1.60" angle="90.00" type="human" speed="13.40" pos="264.75" lane="e0_0" slope="0.00"/>
        <vehicle id="background.1" x="242.12" y="-1.60" angle="90.00" type="human" speed="13.72" pos="242.12" lane="e0_0" slope="0.00"/>
        <vehicle id="background.2" x="121.07" y="-1.60" angle="90.00" type="human" speed="13.49" pos="121.07" lane="e0_0" slope="0.00"/>
    </timestep>
    <timestep time="21.50">
        <vehicle id="background.0" x="271.54" y="-1.60" angle="90.00" type="human" speed="13.58" pos="271.54" lane="e0_0" slope="0.00"/>
        <vehicle id="background.1" x="248.96" y="-1.60" angle="90.00" type="human" speed="13.68" pos="248.96" lane="e0_0" slope="0.00"/>
        <vehicle id="background.2" x="127.95" y="-1.60" angle="90.00" type="human" speed="13.75" pos="127.95" lane="e0_0" slope="0.00"/>
    </timestep>
    <timestep time="22.00">
        <vehicle id="background.0" x="278.34" y="-1.60" angle="90.00" type="human" speed="13.62" pos="278.34" lane="e0_0" slope="0.00"/>
        <vehicle id="background.1" x="255.66" y="-1.60" angle="90.00" type="human" speed="13.40" pos="255.66" lane="e0_0" slope="0.00"/>
        <vehicle id="background.2" x="134.81" y="-1.60" angle="90.00" type="human" speed="13.73" pos="134.81" lane="e0_0" slope="0.00"/>
    </timestep>
    <timestep time="22.50">
        <vehicle id="background.0" x="285.22" y="-1.60" angle="90.00" type="human" speed="13.75" pos="285.22" lane="e0_0" slope="0.00"/>
        <vehicle id="background.1" x="262.59" y="-1.60" angle="90.00" type="human" speed="13.86" pos="262.59" lane="e0_0" slope="0.00"/>
        <vehicle id="background.2" x="141.55" y="-1.60" angle="90.00" type="human" speed="13.48" pos="141.55" lane="e0_0" slope="0.00"/>
    </timestep>
    <timestep time="23.00">
        <vehicle id="background.0" x="291.94" y="-1.60" angle="90.00" type="human" speed="13.44" pos="291.94" lane="e0_0" slope="0.00"/>
        <vehicle id="background.1" x="269.38" y="-1.60" angle="90.00" type="human" speed="13.59" pos="269.38" lane="e0_0" slope="0.00"/>
        <vehicle id="background.2" x="148.28" y="-1.60" angle="90.00" type="human" speed="13.46" pos="148.28" lane="e0_0" slope="0.00"/>
    </timestep>
    <timestep time="23.50">
        <vehicle id="background.0" x="298.71" y="-1.60" angle="90.00" type="human" speed="13.53" pos="298.71" lane="e0_0" slope="0.00"/>
        <vehicle id="background.1" x="276.15" y="-1.60" angle="90.00" type="human" speed="13.54" pos="276.15" lane="e0_0" slope="0.00"/>
        <vehicle id="background.2" x="154.99" y="-1.60" angle="90.00" type="human" speed="13.41" pos="154.99" lane="e0_0" slope="0.00"/>
    </timestep>
    <timestep time="24.00">
        <vehicle id="background.0" x="305.50" y="-1.60" angle="90.00" type="human" speed="13.78" pos="5.50" lane="e1_0" slope="0.00"/>
        <vehicle id="background.1" x="283.07" y="-1.60" angle="90.00" type="human" speed="13.84" pos="283.07" lane="e0_0" slope="0.00"/>
        <vehicle id="background.2" x="161.80" y="-1.60" angle="90.00" type="human" speed="13.61" pos="161.80" lane="e0_0" slope="0.00"/>
    </timestep>
    <timestep time="24.50">
        <vehicle id="background.0" x="312.33" y="-1.60" angle="90.00" type="human" speed="13.67" pos="12.33" lane="e1_0" slope="0.00"/>
        <vehicle id="background.1" x="289.91" y="-1.60" angle="90.00" type="human" speed="13.66" pos="289.91" lane="e0_0" slope="0.00"/>
        <vehicle id="background.2" x="168.71" y="-1.60" angle="90.00" type="human" speed="13.84" pos="168.71" lane="e0_0" slope="0.00"/>
    </timestep>
    <timestep time="25.00">
        <vehicle id="background.0" x="319.21" y="-1.60" angle="90.00" type="human" speed="13.76" pos="19.21" lane="e1_0" slope="0.00"/>
        <vehicle id="background.1" x="296.63" y="-1.60" angle="90.00" type="human" speed="13.45" pos="296.63" lane="e0_0" slope="0.00"/>
        <vehicle id="background.2" x="175.52" y="-1.60" angle="90.00" type="human" speed="13.61" pos="175.52" lane="e0_0" slope="0.00"/>
    </timestep>
    <timestep time="25.50">
        <vehicle id="background.0" x="326.12" y="-1.60" angle="90.00" type="human" speed="13.80" pos="26.12" lane="e1_0" slope="0.00"/>
        <vehicle id="background.1" x="303.30" y="-1.60" angle="90.00" type="human" speed="13.54" pos="3.30" lane="e1_0" slope="0.00"/>
        <vehicle id="background.2" x="182.32" y="-1.60" angle="90.00" type="human" speed="13.60" pos="182.32" lane="e0_0" slope="0.00"/>
    </timestep>
    <timestep time="26.00">
        <vehicle id="background.0" x="332.86" y="-1.60" angle="90.00" type="human" speed="13.49" pos="32.86" lane="e1_0" slope="0.00"/>
        <vehicle id="background.1" x="310.20" y="-1.60" angle="90.00" type="human" speed="13.80" pos="10.20" lane="e1_0" slope="0.00"/>
        <vehicle id="background.2" x="189.18" y="-1.60" angle="90.00" type="human" speed="13.73" pos="189.18" lane="e0_0" slope="0.00"/>
    </timestep>
    <timestep time="26.50">
        <vehicle id="background.0" x="339.79" y="-1.60" angle="90.00" type="human" speed="13.86" pos="39.79" lane="e1_0" slope="0.00"/>
        <vehicle id="background.1" x="316.94" y="-1.60" angle="90.00" type="human" speed="13.48" pos="16.94" lane="e1_0" slope="0.00"/>
        <vehicle id="background.2" x="195.98" y="-1.60" angle="90.00" type="human" speed="13.59" pos="195.98" lane="e0_0" slope="0.00"/>
    </timestep>
    <timestep time="27.00">
        <vehicle id="background.0" x="346.51" y="-1.60" angle="90.00" type="human" speed="13.44" pos="46.51" lane="e1_0" slope="0.00"/>
        <vehicle id="background.1" x="323.74" y="-1.60" angle="90.00" type="human" speed="13.60" pos="23.74" lane="e1_0" slope="0.00"/>
        <vehicle id="background.2" x="202.84" y="-1.60" angle="90.00" type="human" speed="13.71" pos="202.84" lane="e0_0" slope="0.00"/>
    </timestep>
    <timestep time="27.50">
        <vehicle id="background.1" x="330.57" y="-1.60" angle="90.00" type="human" speed="13.66" pos="30.57" lane="e1_0" slope="0.00"/>
        <vehicle id="background.2" x="209.58" y="-1.60" angle="90.00" type="human" speed="13.50" pos="209.58" lane="e0_0" slope="0.00"/>
    </timestep>
    <timestep time="28.00">
        <vehicle id="background.1" x="337.49" y="-1.60" angle="90.00" type="human" speed="13.85" pos="37.49" lane="e1_0" slope="0.00"/>
        <vehicle id="background.2" x="216.35" y="-1.60" angle="90.00" type="human" speed="13.52" pos="216.35" lane="e0_0" slope="0.00"/>
    </timestep>
    <timestep time="28.50">
        <vehicle id="background.1" x="344.23" y="-1.60" angle="90.00" type="human" speed="13.48" pos="44.23" lane="e1_0" slope="0.00"/>
        <vehicle id="background.2" x="223.14" y="-1.60" angle="90.00" type="human" speed="13.60" pos="223.14" lane="e0_0" slope="0.00"/>
    </timestep>
    <timestep time="29.00">
        <vehicle id="background.2" x="229.93" y="-1.60" angle="90.00" type="human" speed="13.58" pos="229.93" lane="e0_0" slope="0.00"/>
    </timestep>
    <timestep time="29.50">
        <vehicle id="background.2" x="236.85" y="-1.60" angle="90.00" type="human" speed="13.84" pos="236.85" lane="e0_0" slope="0.00"/>
    </timestep>
    <timestep time="30.00">
        <vehicle id="background.2" x="243.74" y="-1.60" angle="90.00" type="human" speed="13.78" pos="243.74" lane="e0_0" slope="0.00"/>
    </timestep>
    <timestep time="30.50">
        <vehicle id="background.2" x="250.65" y="-1.60" angle="90.00" type="human" speed="13.80" pos="250.65" lane="e0_0" slope="0.00"/>
    </timestep>
    <timestep time="31.00">
        <vehicle id="background.2" x="257.35" y="-1.60" angle="90.00" type="human" speed="13.40" pos="257.35" lane="e0_0" slope="0.00"/>
    </timestep>
    <timestep time="31.50">
        <vehicle id="background.2" x="264.09" y="-1.60" angle="90.00" type="human" speed="13.48" pos="264.09" lane="e0_0" slope="0.00"/>
    </timestep>
    <timestep time="32.00">
        <vehicle id="background.2" x="270.93" y="-1.60" angle="90.00" type="human" speed="13.69" pos="270.93" lane="e0_0" slope="0.00"/>
    </timestep>
    <timestep time="32.50">
        <vehicle id="background.2" x="277.81" y="-1.60" angle="90.00" type="human" speed="13.77" pos="277.81" lane="e0_0" slope="0.00"/>
    </timestep>
    <timestep time="33.00">
        <vehicle id="background.2" x="284.58" y="-1.60" angle="90.00" type="human" speed="13.53" pos="284.58" lane="e0_0" slope="0.00"/>
    </timestep>
    <timestep time="33.50">
        <vehicle id="background.2" x="291.48" y="-1.60" angle="90.00" type="human" speed="13.80" pos="291.48" lane="e0_0" slope="0.00"/>
    </timestep>
    <timestep time="34.00">
        <vehicle id="background.2" x="298.35" y="-1.60" angle="90.00" type="human" speed="13.74" pos="298.35" lane="e0_0" slope="0.00"/>
    </timestep>
    <timestep time="34.50">
        <vehicle id="background.2" x="305.00" y="-1.60" angle="90.00" type="human" speed="13.50" pos="5.00" lane="e1_0" slope="0.00"/>
    </timestep>
    <timestep time="35.00">
        <vehicle id="background.2" x="311.74" y="-1.60" angle="90.00" type="human" speed="13.48" pos="11.74" lane="e1_0" slope="0.00"/>
    </timestep>
    <timestep time="35.50">
        <vehicle id="background.2" x="318.46" y="-1.60" angle="90.00" type="human" speed="13.45" pos="18.46" lane="e1_0" slope="0.00"/>
    </timestep>
    <timestep time="36.00">
        <vehicle id="background.2" x="325.33" y="-1.60" angle="90.00" type="human" speed="13.74" pos="25.33" lane="e1_0" slope="0.00"/>
    </timestep>
    <timestep time="36.50">
        <vehicle id="background.2" x="332.18" y="-1.60" angle="90.00" type="human" speed="13.70" pos="32.18" lane="e1_0" slope="0.00"/>
    </timestep>
    <timestep time="37.00">
        <vehicle id="background.2" x="339.07" y="-1.60" angle="90.00" type="human" speed="13.79" pos="39.07" lane="e1_0" slope="0.00"/>
    </timestep>
    <timestep time="37.50">
        <vehicle id="background.2" x="345.85" y="-1.60" angle="90.00" type="human" speed="13.55" pos="45.85" lane="e1_0" slope="0.00"/>
    </timestep>
    <timestep time="38.00"/>
    <timestep time="38.50">
        <vehicle id="background.3" x="5.10" y="-1.60" angle="90.00" type="human" speed="13.89" pos="5.10" lane="e0_0" slope="0.00"/>
    </timestep>
    <timestep time="39.00">
        <vehicle id="background.3" x="11.88" y="-1.60" angle="90.00" type="human" speed="13.57" pos="11.88" lane="e0_0" slope="0.00"/>
    </timestep>
    <timestep time="39.50">
        <vehicle id="background.3" x="18.81" y="-1.60" angle="90.00" type="human" speed="13.86" pos="18.81" lane="e0_0" slope="0.00"/>
    </timestep>
    <timestep time="40.00">
        <vehicle id="background.3" x="25.66" y="-1.60" angle="90.00" type="human" speed="13.70" pos="25.66" lane="e0_0" slope="0.00"/>
    </timestep>
    <timestep time="40.50">
        <vehicle id="background.3" x="32.41" y="-1.60" angle="90.00" type="human" speed="13.49" pos="32.41" lane="e0_0" slope="0.00"/>
    </timestep>
    <timestep time="41.00">
        <vehicle id="background.3" x="39.26" y="-1.60" angle="90.00" type="human" speed="13.71" pos="39.26" lane="e0_0" slope="0.00"/>
    </timestep>
    <timestep time="41.50">
        <vehicle id="background.3" x="46.02" y="-1.60" angle="90.00" type="human" speed="13.53" pos="46.02" lane="e0_0" slope="0.00"/>
    </timestep>
    <timestep time="42.00">
        <vehicle id="background.3" x="52.96" y="-1.60" angle="90.00" type="human" speed="13.88" pos="52.96" lane="e0_0" slope="0.00"/>
    </timestep>
    <timestep time="42.50">
        <vehicle id="background.3" x="59.76" y="-1.60" angle="90.00" type="human" speed="13.59" pos="59.76" lane="e0_0" slope="0.00"/>
    </timestep>
    <timestep time="43.00">
        <vehicle id="background.3" x="66.62" y="-1.60" angle="90.00" type="human" speed="13.72" pos="66.62" lane="e0_0" slope="0.00"/>
    </timestep>
    <timestep time="43.50">
        <vehicle id="background.3" x="73.45" y="-1.60" angle="90.00" type="human" speed="13.66" pos="73.45" lane="e0_0" slope="0.00"/>
    </timestep>
    <timestep time="44.00">
        <vehicle id="background.3" x="80.27" y="-1.60" angle="90.00" type="human" speed="13.65" pos="80.27" lane="e0_0" slope="0.00"/>
    </timestep>
    <timestep time="44.50">
        <vehicle id="background.3" x="87.09" y="-1.60" angle="90.00" type="human" speed="13.64" pos="87.09" lane="e0_0" slope="0.00"/>
    </timestep>
    <timestep time="45.00">
        <vehicle id="background.3" x="93.94" y="-1.60" angle="90.00" type="human" speed="13.70" pos="93.94" lane="e0_0" slope="0.00"/>
    </timestep>
    <timestep time="45.50">
        <vehicle id="background.3" x="100.65" y="-1.60" angle="90.00" type="human" speed="13.41" pos="100.65" lane="e0_0" slope="0.00"/>
    </timestep>
    <timestep time="46.00">
        <vehicle id="background.3" x="107.50" y="-1.60" angle="90.00" type="human" speed="13.71" pos="107.50" lane="e0_0" slope="0.00"/>
    </timestep>
    <timestep time="46.50">
        <vehicle id="background.3" x="114.19" y="-1.60" angle="90.00" type="human" speed="13.39" pos="114.19" lane="e0_0" slope="0.00"/>
    </timestep>
    <timestep time="47.00">
        <vehicle id="background.3" x="121.02" y="-1.60" angle="90.00" type="human" speed="13.64" pos="121.02" lane="e0_0" slope="0.00"/>
    </timestep>
    <timestep time="47.50">
        <vehicle id="background.3" x="127.87" y="-1.60" angle="90.00" type="human" speed="13.71" pos="127.87" lane="e0_0" slope="0.00"/>
        <vehicle id="background.4" x="5.10" y="-1.60" angle="90.00" type="human" speed="11.47" pos="5.10" lane="e0_0" slope="0.00"/>
    </timestep>
    <timestep time="48.00">
        <vehicle id="background.3" x="134.81" y="-1.60" angle="90.00" type="human" speed="13.87" pos="134.81" lane="e0_0" slope="0.00"/>
        <vehicle id="background.4" x="10.74" y="-1.60" angle="90.00" type="human" speed="11.28" pos="10.74" lane="e0_0" slope="0.00"/>
    </timestep>
    <timestep time="48.50">
        <vehicle id="background.3" x="141.70" y="-1.60" angle="90.00" type="human" speed="13.78" pos="141.70" lane="e0_0" slope="0.00"/>
        <vehicle id="background.4" x="16.24" y="-1.60" angle="90.00" type="human" speed="11.00" pos="16.24" lane="e0_0" slope="0.00"/>
    </timestep>
    <timestep time="49.00">
        <vehicle id="background.3" x="148.61" y="-1.60" angle="90.00" type="human" speed="13.82" pos="148.61" lane="e0_0" slope="0.00"/>
        <vehicle id="background.4" x="21.75" y="-1.60" angle="90.00" type="human" speed="11.01" pos="21.75" lane="e0_0" slope="0.00"/>
    </timestep>
    <timestep time="49.50">
        <vehicle id="background.3" x="155.35" y="-1.60" angle="90.00" type="human" speed="13.49" pos="155.35" lane="e0_0" slope="0.00"/>