<?xml version="1.0" encoding="UTF-8"?>

<!-- generated on 2026-05-14 17:04:36 by Eclipse SUMO sumo Version 1.24.0
<sumoConfiguration xmlns:xsi="http://www.w3.org/2001/XMLSchema-instance" xsi:noNamespaceSchemaLocation="http://sumo.dlr.de/xsd/sumoConfiguration.xsd">

    <input>
        <net-file value="scenarios/simple_arterial/simple_arterial.net.xml"/>
        <route-files value="scenarios/simple_arterial/simple_arterial.rou.xml"/>
        <additional-files value="scenarios/simple_arterial/simple_arterial.tls.xml"/>
    </input>

    <output>
        <fcd-output value="runs/fcd_expert_default/episode_00042_seed_84.fcd.xml"/>
    </output>

    <time>
        <begin value="0"/>
        <end value="900"/>
        <step-length value="0.5"/>
    </time>

    <report>
        <no-warnings value="true"/>
    </report>

    <traci_server>
        <remote-port value="24542"/>
    </traci_server>

    <random_number>
        <seed value="84"/>
    </random_number>

</sumoConfiguration>
-->

<fcd-export xmlns:xsi="http://www.w3.org/2001/XMLSchema-instance" xsi:noNamespaceSchemaLocation="http://sumo.dlr.de/xsd/fcd_file.xsd">
    <timestep time="0.00"/>
    <timestep time="0.50"/>
    <timestep time="1.00"/>
    <timestep time="1.50"/>
    <timestep time="2.00"/>
    <timestep time="2.50"/>
    <timestep time="3.00"/>
    <timestep time="3.50"/>
    <timestep time="4.00"/>
    <timestep time="4.50"/>
    <timestep time="5.00"/>
    <timestep time="5.50"/>
    <timestep time="6.00"/>
    <timestep time="6.50"/>
    <timestep time="7.00"/>
    <timestep time="7.50"/>
    <timestep time="8.00"/>
    <timestep time="8.50"/>
    <timestep time="9.00"/>
    <timestep time="9.50"/>
    <timestep time="10.00"/>
    <timestep time="10.50"/>
    <timestep time="11.00"/>
    <timestep time="11.50"/>
    <timestep time="12.00"/>
    <timestep time="12.50"/>
    <timestep time="13.00"/>
    <timestep time="13.50"/>
    <timestep time="14.00"/>
    <timestep time="14.50">
        <vehicle id="background.0" x="5.10" y="-1.60" angle="90.00" type="human" speed="13.07" pos="5.10" lane="e0_0" slope="0.00"/>
    </timestep>
    <timestep time="15.00">
        <vehicle id="background.0" x="11.48" y="-1.60" angle="90.00" type="human" speed="12.76" pos="11.48" lane="e0_0" slope="0.00"/>
    </timestep>
    <timestep time="15.50">
        <vehicle id="background.0" x="17.79" y="-1.60" angle="90.00" type="human" speed="12.62" pos="17.79" lane="e0_0" slope="0.00"/>
    </timestep>
    <timestep time="16.00">
        <vehicle id="background.0" x="24.20" y="-1.60" angle="90.00" type="human" speed="12.82" pos="24.20" lane="e0_0" slope="0.00"/>
    </timestep>
    <timestep time="16.50">
        <vehicle id="background.0" x="30.61" y="-1.60" angle="90.00" type="human" speed="12.81" pos="30.61" lane="e0_0" slope="0.00"/>
    </timestep>
    <timestep time="17.00">
        <vehicle id="background.0" x="37.07" y="-1.60" angle="90.00" type="human" speed="12.92" pos="37.07" lane="e0_0" slope="0.00"/>
    </timestep>
    <timestep time="17.50">
        <vehicle id="background.0" x="43.59" y="-1.60" angle="90.00" type="human" speed="13.05" pos="43.59" lane="e0_0" slope="0.00"/>
    </timestep>
    <timestep time="18.00">
        <vehicle id="background.0" x="49.97" y="-1.60" angle="90.00" type="human" speed="12.75" pos="49.97" lane="e0_0" slope="0.00"/>
    </timestep>
    <timestep time="18.50">
        <vehicle id="background.0" x="56.32" y="-1.60" angle="90.00" type="human" speed="12.70" pos="56.32" lane="e0_0" slope="0.00"/>
    </timestep>
    <timestep time="19.00">
        <vehicle id="background.0" x="62.78" y="-1.60" angle="90.00" type="human" speed="12.94" pos="62.78" lane="e0_0" slope="0.00"/>
    </timestep>
    <timestep time="19.50">
        <vehicle id="background.0" x="69.16" y="-1.60" angle="90.00" type="human" speed="12.76" pos="69.16" lane="e0_0" slope="0.00"/>
    </timestep>
    <timestep time="20.00">
        <vehicle id="background.0" x="75.57" y="-1.60" angle="90.00" type="human" speed="12.81" pos="75.57" lane="e0_0" slope="0.00"/>
    </timestep>
    <timestep time="20.50">
        <vehicle id="background.0" x="81.93" y="-1.60" angle="90.00" type="human" speed="12.73" pos="81.93" lane="e0_0" slope="0.00"/>
    </timestep>
    <timestep time="21.00">
        <vehicle id="background.0" x="88.37" y="-1.60" angle="90.00" type="human" speed="12.89" pos="88.37" lane="e0_0" slope="0.00"/>
    </timestep>
    <timestep time="21.50">
        <vehicle id="background.0" x="94.82" y="-1.60" angle="90.00" type="human" speed="12.89" pos="94.82" lane="e0_0" slope="0.00"/>
    </timestep>
    <timestep time="22.00">
        <vehicle id="background.0" x="101.27" y="-1.60" angle="90.00" type="human" speed="12.89" pos="101.27" lane="e0_0" slope="0.00"/>
    </timestep>
    <timestep time="22.50">
        <vehicle id="background.0" x="107.59" y="-1.60" angle="90.00" type="human" speed="12.66" pos="107.59" lane="e0_0" slope="0.00"/>
    </timestep>
    <timestep time="23.00">
        <vehicle id="background.0" x="113.95" y="-1.60" angle="90.00" type="human" speed="12.71" pos="113.95" lane="e0_0" slope="0.00"/>
    </timestep>
    <timestep time="23.50">
        <vehicle id="background.0" x="120.25" y="-1.60" angle="90.00" type="human" speed="12.59" pos="120.25" lane="e0_0" slope="0.00"/>
    </timestep>
    <timestep time="24.00">
        <vehicle id="background.0" x="126.62" y="-1.60" angle="90.00" type="human" speed="12.75" pos="126.62" lane="e0_0" slope="0.00"/>
    </timestep>
    <timestep time="24.50">
        <vehicle id="background.0" x="133.11" y="-1.60" angle="90.00" type="human" speed="12.98" pos="133.11" lane="e0_0" slope="0.00"/>
    </timestep>
    <timestep time="25.00">
        <vehicle id="background.0" x="139.42" y="-1.60" angle="90.00" type="human" speed="12.61" pos="139.42" lane="e0_0" slope="0.00"/>
    </timestep>
    <timestep time="25.50">
        <vehicle id="background.0" x="145.89" y="-1.60" angle="90.00" type="human" speed="12.95" pos="145.89" lane="e0_0" slope="0.00"/>
    </timestep>
    <timestep time="26.00">
        <vehicle id="background.0" x="152.37" y="-1.60" angle="90.00" type="human" speed="12.96" pos="152.37" lane="e0_0" slope="0.00"/>
    </timestep>
    <timestep time="26.50">
        <vehicle id="background.0" x="158.72" y="-1.60" angle="90.00" type="human" speed="12.70" pos="158.72" lane="e0_0" slope="0.00"/>
    </timestep>
    <timestep time="27.00">
        <vehicle id="background.0" x="165.16" y="-1.60" angle="90.00" type="human" speed="12.87" pos="165.16" lane="e0_0" slope="0.00"/>
    </timestep>
    <timestep time="27.50">
        <vehicle id="background.0" x="171.65" y="-1.60" angle="90.00" type="human" speed="12.98" pos="171.65" lane="e0_0" slope="0.00"/>
    </timestep>
    <timestep time="28.00">
        <vehicle id="background.0" x="177.96" y="-1.60" angle="90.00" type="human" speed="12.63" pos="177.96" lane="e0_0" slope="0.00"/>
    </timestep>
    <timestep time="28.50">
        <vehicle id="background.0" x="184.44" y="-1.60" angle="90.00" type="human" speed="12.95" pos="184.44" lane="e0_0" slope="0.00"/>
    </timestep>
    <timestep time="29.00">
        <vehicle id="background.0" x="190.92" y="-1.60" angle="90.00" type="human" speed="12.97" pos="190.92" lane="e0_0" slope="0.00"/>
    </timestep>
    <timestep time="29.50">
        <vehicle id="background.0" x="197.43" y="-1.60" angle="90.00" type="human" speed="13.02" pos="197.43" lane="e0_0" slope="0.00"/>
    </timestep>
    <timestep time="30.00">
        <vehicle id="background.0" x="203.91" y="-1.60" angle="90.00" type="human" speed="12.97" pos="203.91" lane="e0_0" slope="0.00"/>
    </timestep>
    <timestep time="30.50">
        <vehicle id="background.0" x="210.28" y="-1.60" angle="90.00" type="human" speed="12.74" pos="210.28" lane="e0_0" slope="0.00"/>
    </timestep>
    <timestep time="31.00">
        <vehicle id="background.0" x="216.75" y="-1.60" angle="90.00" type="human" speed="12.93" pos="216.75" lane="e0_0" slope="0.00"/>
    </timestep>
    <timestep time="31.50">
        <vehicle id="background.0" x="223.04" y="-1.60" angle="90.00" type="human" speed="12.58" pos="223.04" lane="e0_0" slope="0.00"/>
    </timestep>
    <timestep time="32.00">
        <vehicle id="background.0" x="229.46" y="-1.60" angle="90.00" type="human" speed="12.85" pos="229.46" lane="e0_0" slope="0.00"/>
    </timestep>
    <timestep time="32.50">
        <vehicle id="background.0" x="235.93" y="-1.60" angle="90.00" type="human" speed="12.94" pos="235.93" lane="e0_0" slope="0.00"/>
    </timestep>
    <timestep time="33.00">
        <vehicle id="background.0" x="242.38" y="-1.60" angle="90.00" type="human" speed="12.90" pos="242.38" lane="e0_0" slope="0.00"/>
    </timestep>
    <timestep time="33.50">
        <vehicle id="background.0" x="248.78" y="-1.60" angle="90.00" type="human" speed="12.78" pos="248.78" lane="e0_0" slope="0.00"/>
    </timestep>
    <timestep time="34.00">
        <vehicle id="background.0" x="255.31" y="-1.60" angle="90.00" type="human" speed="13.07" pos="255.31" lane="e0_0" slope="0.00"/>
    </timestep>
    <timestep time="34.50">
        <vehicle id="background.0" x="261.84" y="-1.60" angle="90.00" type="human" speed="13.07" pos="261.84" lane="e0_0" slope="0.00"/>
    </timestep>
    <timestep time="35.00">
        <vehicle id="background.0" x="268.28" y="-1.60" angle="90.00" type="human" speed="12.87" pos="268.28" lane="e0_0" slope="0.00"/>
    </timestep>
    <timestep time="35.50">
        <vehicle id="background.0" x="274.71" y="-1.60" angle="90.00" type="human" speed="12.87" pos="274.71" lane="e0_0" slope="0.00"/>
    </timestep>
    <timestep time="36.00">
        <vehicle id="background.0" x="281.08" y="-1.60" angle="90.00" type="human" speed="12.73" pos="281.08" lane="e0_0" slope="0.00"/>
    </timestep>
    <timestep time="36.50">
        <vehicle id="background.0" x="287.58" y="-1.60" angle="90.00" type="human" speed="13.00" pos="287.58" lane="e0_0" slope="0.00"/>
    </timestep>
    <timestep time="37.00">
        <vehicle id="background.0" x="293.91" y="-1.60" angle="90.00" type="human" speed="12.66" pos="293.91" lane="e0_0" slope="0.00"/>
    </timestep>
    <timestep time="37.50">
        <vehicle id="background.0" x="300.31" y="-1.60" angle="90.00" type="human" speed="13.01" pos="0.31" lane="e1_0" slope="0.00"/>
    </timestep>
    <timestep time="38.00">
        <vehicle id="background.0" x="306.80" y="-1.60" angle="90.00" type="human" speed="12.97" pos="6.80" lane="e1_0" slope="0.00"/>
    </timestep>
    <timestep time="38.50">
        <vehicle id="background.0" x="313.09" y="-1.60" angle="90.00" type="human" speed="12.58" pos="13.09" lane="e1_0" slope="0.00"/>
    </timestep>
    <timestep time="39.00">
        <vehicle id="background.0" x="319.57" y="-1.60" angle="90.00" type="human" speed="12.97" pos="19.57" lane="e1_0" slope="0.00"/>
    </timestep>
    <timestep time="39.50">
        <vehicle id="background.0" x="325.88" y="-1.60" angle="90.00" type="human" speed="12.62" pos="25.88" lane="e1_0" slope="0.00"/>
    </timestep>
    <timestep time="40.00">
        <vehicle id="background.0" x="332.38" y="-1.60" angle="90.00" type="human" speed="13.00" pos="32.38" lane="e1_0" slope="0.00"/>
    </timestep>
    <timestep time="40.50">
        <vehicle id="background.0" x="338.89" y="-1.60" angle="90.00" type="human" speed="13.02" pos="38.89" lane="e1_0" slope="0.00"/>
    </timestep>
    <timestep time="41.00">
        <vehicle id="background.0" x="345.23" y="-1.60" angle="90.00" type="human" speed="12.70" pos="45.23" lane="e1_0" slope="0.00"/>
    </timestep>
    <timestep time="41.50"/>
    <timestep time="42.00"/>
    <timestep time="42.50"/>
    <timestep time="43.00"/>
    <timestep time="43.50"/>
    <timestep time="44.00"/>
    <timestep time="44.50"/>
    <timestep time="45.00"/>
    <timestep time="45.50"/>
    <timestep time="46.00"/>
    <timestep time="46.50"/>
    <timestep time="47.00"/>
    <timestep time="47.50"/>
    <timestep time="48.00"/>
    <timestep time="48.50"/>
    <timestep time="49.00"/>
    <timestep time="49.50"/>
    <timestep time="50.00"/>
    <timestep time="50.50"/>
    <timestep time="51.00"/>
    <timestep time="51.50"/>
    <timestep time="52.00"/>
    <timestep time="52.50"/>
    <timestep time="53.00"/>
    <timestep time="53.50"/>
    <timestep time="54.00"/>
    <timestep time="54.50"/>
    <timestep time="55.00"/>
    <timestep time="55.50"/>
    <timestep time="56.00"/>
    <timestep time="56.50"/>
    <timestep time="57.00"/>
    <timestep time="57.50"/>
    <timestep time="58.00">
        <vehicle id="background.1" x="5.10" y="-1.60" angle="90.00" type="human" speed="10.72" pos="5.10" lane="e0_0" slope="0.00"/>
    </timestep>
    <timestep time="58.50">
        <vehicle id="background.1" x="10.38" y="-1.60" angle="90.00" type="human" speed="10.57" pos="10.38" lane="e0_0" slope="0.00"/>
    </timestep>
    <timestep time="59.00">
        <vehicle id="background.1" x="15.73" y="-1.60" angle="90.00" type="human" speed="10.69" pos="15.73" lane="e0_0" slope="0.00"/>
    </timestep>
    <timestep time="59.50">
        <vehicle id="background.1" x="20.91" y="-1.60" angle="90.00" type="human" speed="10.36" pos="20.91" lane="e0_0" slope="0.00"/>
    </timestep>
    <timestep time="60.00">
        <vehicle id="background.1" x="26.16" y="-1.60" angle="90.00" type="human" speed="10.51" pos="26.16" lane="e0_0" slope="0.00"/>
    </timestep>
    <timestep time="60.50">
        <vehicle id="background.1" x="31.40" y="-1.60" angle="90.00" type="human" speed="10.47" pos="31.40" lane="e0_0" slope="0.00"/>
    </timestep>
    <timestep time="61.00">
        <vehicle id="background.1" x="36.71" y="-1.60" angle="90.00" type="human" speed="10.63" pos="36.71" lane="e0_0" slope="0.00"/>
    </timestep>
    <timestep time="61.50">
        <vehicle id="background.1" x="41.98" y="-1.60" angle="90.00" type="human" speed="10.54" pos="41.98" lane="e0_0" slope="0.00"/>
    </timestep>
    <timestep time="62.00">
        <vehicle id="background.1" x="47.32" y="-1.60" angle="90.00" type="human" speed="10.68" pos="47.32" lane="e0_0" slope="0.00"/>
    </timestep>
    <timestep time="62.50">
        <vehicle id="background.1" x="52.64" y="-1.60" angle="90.00" type="human" speed="10.63" pos="52.64" lane="e0_0" slope="0.00"/>
    </timestep>
    <timestep time="63.00">
        <vehicle id="background.1" x="57.83" y="-1.60" angle="90.00" type="human" speed="10.39" pos="57.83" lane="e0_0" slope="0.00"/>
    </timestep>
    <timestep time="63.50">
        <vehicle id="background.1" x="63.06" y="-1.60" angle="90.00" type="human" speed="10.45" pos="63.06" lane="e0_0" slope="0.00"/>
    </timestep>
    <timestep time="64.00">
        <vehicle id="background.1" x="68.35" y="-1.60" angle="90.00" type="human" speed="10.59" pos="68.35" lane="e0_0" slope="0.00"/>
    </timestep>
    <timestep time="64.50">
        <vehicle id="background.1" x="73.71" y="-1.60" angle="90.00" type="human" speed="10.71" pos="73.71" lane="e0_0" slope="0.00"/>
    </timestep>
    <timestep time="65.00">
        <vehicle id="background.1" x="79.07" y="-1.60" angle="90.00" type="human" speed="10.72" pos="79.07" lane="e0_0" slope="0.00"/>
    </timestep>
    <timestep time="65.50">
        <vehicle id="background.1" x="84.28" y="-1.60" angle="90.00" type="human" speed="10.42" pos="84.28" lane="e0_0" slope="0.00"/>
    </timestep>
    <timestep time="66.00">
        <vehicle id="background.1" x="89.56" y="-1.60" angle="90.00" type="human" speed="10.56" pos="89.56" lane="e0_0" slope="0.00"/>
        <vehicle id="ego" x="5.10" y="-1.60" angle="90.00" type="ego_type" speed="0.00" pos="5.10" lane="e0_0" slope="0.00"/>
    </timestep>
    <timestep time="66.50">
        <vehicle id="background.1" x="94.73" y="-1.60" angle="90.00" type="human" speed="10.34" pos="94.73" lane="e0_0" slope="0.00"/>
        <vehicle id="ego" x="5.60" y="-1.60" angle="90.00" type="ego_type" speed="1.00" pos="5.60" lane="e0_0" slope="0.00"/>
    </timestep>
    <timestep time="67.00">
        <vehicle id="background.1" x="100.04" y="-1.60" angle="90.00" type="human" speed="10.61" pos="100.04" lane="e0_0" slope="0.00"/>
        <vehicle id="ego" x="6.60" y="-1.60" angle="90.00" type="ego_type" speed="2.00" pos="6.60" lane="e0_0" slope="0.00"/>
    </timestep>
    <timestep time="67.50">
        <vehicle id="background.1" x="105.24" y="-1.60" angle="90.00" type="human" speed="10.41" pos="105.24" lane="e0_0" slope="0.00"/>
        <vehicle id="ego" x="8.10" y="-1.60" angle="90.00" type="ego_type" speed="3.00" pos="8.10" lane="e0_0" slope="0.00"/>
    </timestep>
    <timestep time="68.00">
        <vehicle id="background.1" x="110.50" y="-1.60" angle="90.00" type="human" speed="10.52" pos="110.50" lane="e0_0" slope="0.00"/>
        <vehicle id="ego" x="10.10" y="-1.60" angle="90.00" type="ego_type" speed="4.00" pos="10.10" lane="e0_0" slope="0.00"/>
    </timestep>
    <timestep time="68.50">
        <vehicle id="background.1" x="115.71" y="-1.60" angle="90.00" type="human" speed="10.41" pos="115.71" lane="e0_0" slope="0.00"/>
        <vehicle id="background.2" x="5.10" y="-1.60" angle="90.00" type="human" speed="1.62" pos="5.10" lane="e0_0" slope="0.00"/>
        <vehicle id="ego" x="12.60" y="-1.60" angle="90.00" type="ego_type" speed="5.00" pos="12.60" lane="e0_0" slope="0.00"/>
    </timestep>
    <timestep time="69.00">
        <vehicle id="background.1" x="121.01" y="-1.60" angle="90.00" type="human" speed="10.60" pos="121.01" lane="e0_0" slope="0.00"/>
        <vehicle id="background.2" x="5.85" y="-1.60" angle="90.00" type="human" speed="1.50" pos="5.85" lane="e0_0" slope="0.00"/>
        <vehicle id="ego" x="15.60" y="-1.60" angle="90.00" type="ego_type" speed="6.00" pos="15.60" lane="e0_0" slope="0.00"/>
    </timestep>
    <timestep time="69.50">
        <vehicle id="background.1" x="126.21" y="-1.60" angle="90.00" type="human" speed="10.41" pos="126.21" lane="e0_0" slope="0.00"/>
        <vehicle id="background.2" x="6.95" y="-1.60" angle="90.00" type="human" speed="2.21" pos="6.95" lane="e0_0" slope="0.00"/>
        <vehicle id="ego" x="19.10" y="-1.60" angle="90.00" type="ego_type" speed="7.00" pos="19.10" lane="e0_0" slope="0.00"/>
    </timestep>
    <timestep time="70.00">
        <vehicle id="background.1" x="131.55" y="-1.60" angle="90.00" type="human" speed="10.68" pos="131.55" lane="e0_0" slope="0.00"/>
        <vehicle id="background.2" x="8.43" y="-1.60" angle="90.00" type="human" speed="2.95" pos="8.43" lane="e0_0" slope="0.00"/>
        <vehicle id="ego" x="23.10" y="-1.60" angle="90.00" type="ego_type" speed="8.00" pos="23.10" lane="e0_0" slope="0.00"/>
    </timestep>
    <timestep time="70.50">
        <vehicle id="background.1" x="136.81" y="-1.60" angle="90.00" type="human" speed="10.51" pos="136.81" lane="e0_0" slope="0.00"/>
        <vehicle id="background.2" x="10.16" y="-1.60" angle="90.00" type="human" speed="3.47" pos="10.16" lane="e0_0" slope="0.00"/>
        <vehicle id="ego" x="27.60" y="-1.60" angle="90.00" type="ego_type" speed="9.00" pos="27.60" lane="e0_0" slope="0.00"/>
    </timestep>
    <timestep time="71.00">
        <vehicle id="background.1" x="142.06" y="-1.60" angle="90.00" type="human" speed="10.51" pos="142.06" lane="e0_0" slope="0.00"/>
        <vehicle id="background.2" x="12.34" y="-1.60" angle="90.00" type="human" speed="4.36" pos="12.34" lane="e0_0" slope="0.00"/>
        <vehicle id="ego" x="32.60" y="-1.60" angle="90.00" type="ego_type" speed="10.00" pos="32.60" lane="e0_0" slope="0.00"/>
    </timestep>
    <timestep time="71.50">
        <vehicle id="background.1" x="147.26" y="-1.60" angle="90.00" type="human" speed="10.40" pos="147.26" lane="e0_0" slope="0.00"/>
        <vehicle id="background.2" x="14.85" y="-1.60" angle="90.00" type="human" speed="5.01" pos="14.85" lane="e0_0" slope="0.00"/>
        <vehicle id="background.3" x="5.10" y="-1.60" angle="90.00" type="human" speed="3.34" pos="5.10" lane="e0_0" slope="0.00"/>
        <vehicle id="ego" x="38.10" y="-1.60" angle="90.00" type="ego_type" speed="11.00" pos="38.10" lane="e0_0" slope="0.00"/>
    </timestep>
    <timestep time="72.00">
        <vehicle id="background.1" x="152.60" y="-1.60" angle="90.00" type="human" speed="10.67" pos="152.60" lane="e0_0" slope="0.00"/>
        <vehicle id="background.2" x="17.85" y="-1.60" angle="90.00" type="human" speed="6.01" pos="17.85" lane="e0_0" slope="0.00"/>
        <vehicle id="background.3" x="6.74" y="-1.60" angle="90.00" type="human" speed="3.28" pos="6.74" lane="e0_0" slope="0.00"/>
        <vehicle id="ego" x="44.10" y="-1.60" angle="90.00" type="ego_type" speed="12.00" pos="44.10" lane="e0_0" slope="0.00"/>
    </timestep>
    <timestep time="72.50">
        <vehicle id="background.1" x="157.81" y="-1.60" angle="90.00" type="human" speed="10.42" pos="157.81" lane="e0_0" slope="0.00"/>
        <vehicle id="background.2" x="21.11" y="-1.60" angle="90.00" type="human" speed="6.52" pos="21.11" lane="e0_0" slope="0.00"/>
        <vehicle id="background.3" x="8.83" y="-1.60" angle="90.00" type="human" speed="4.18" pos="8.83" lane="e0_0" slope="0.00"/>
        <vehicle id="ego" x="50.60" y="-1.60" angle="90.00" type="ego_type" speed="13.00" pos="50.60" lane="e0_0" slope="0.00"/>
    </timestep>
    <timestep time="73.00">
        <vehicle id="background.1" x="163.00" y="-1.60" angle="90.00" type="human" speed="10.39" pos="163.00" lane="e0_0" slope="0.00"/>
        <vehicle id="background.2" x="24.72" y="-1.60" angle="90.00" type="human" speed="7.21" pos="24.72" lane="e0_0" slope="0.00"/>
        <vehicle id="background.3" x="11.21" y="-1.60" angle="90.00" type="human" speed="4.76" pos="11.21" lane="e0_0" slope="0.00"/>
        <vehicle id="ego" x="57.14" y="-1.60" angle="90.00" type="ego_type" speed="13.07" pos="57.14" lane="e0_0" slope="0.00"/>
    </timestep>
    <timestep time="73.50">
        <vehicle id="background.1" x="168.29" y="-1.60" angle="90.00" type="human" speed="10.57" pos="168.29" lane="e0_0" slope="0.00"/>
        <vehicle id="background.2" x="28.62" y="-1.60" angle="90.00" type="human" speed="7.80" pos="28.62" lane="e0_0" slope="0.00"/>
        <vehicle id="background.3" x="13.92" y="-1.60" angle="90.00" type="human" speed="5.43" pos="13.92" lane="e0_0" slope="0.00"/>
        <vehicle id="background.4" x="5.10" y="-1.60" angle="90.00" type="human" speed="3.00" pos="5.10" lane="e0_0" slope="0.00"/>
        <vehicle id="ego" x="63.67" y="-1.60" angle="90.00" type="ego_type" speed="13.07" pos="63.67" lane="e0_0" slope="0.00"/>
    </timestep>
    <timestep time="74.00">
        <vehicle id="background.1" x="173.63" y="-1.60" angle="90.00" type="human" speed="10.68" pos="173.63" lane="e0_0" slope="0.00"/>
        <vehicle id="background.2" x="32.80" y="-1.60" angle="90.00" type="human" speed="8.37" pos="32.80" lane="e0_0" slope="0.00"/>
        <vehicle id="background.3" x="17.03" y="-1.60" angle="90.00" type="human" speed="6.21" pos="17.03" lane="e0_0" slope="0.00"/>
        <vehicle id="background.4" x="6.42" y="-1.60" angle="90.00" type="human" speed="2.65" pos="6.42" lane="e0_0" slope="0.00"/>
        <vehicle id="ego" x="70.21" y="-1.60" angle="90.00" type="ego_type" speed="13.07" pos="70.21" lane="e0_0" slope="0.00"/>
    </timestep>
    <timestep time="74.50">
        <vehicle id="background.1" x="178.75" y="-1.60" angle="90.00" type="human" speed="10.24" pos="178.75" lane="e0_0" slope="0.00"/>
        <vehicle id="background.2" x="37.26" y="-1.60" angle="90.00" type="human" speed="8.92" pos="37.26" lane="e0_0" slope="0.00"/>
        <vehicle id="background.3" x="20.39" y="-1.60" angle="90.00" type="human" speed="6.73" pos="20.39" lane="e0_0" slope="0.00"/>
        <vehicle id="background.4" x="8.24" y="-1.60" angle="90.00" type="human" speed="3.63" pos="8.24" lane="e0_0" slope="0.00"/>
        <vehicle id="ego" x="76.75" y="-1.60" angle="90.00" type="ego_type" speed="13.07" pos="76.75" lane="e0_0" slope="0.00"/>
    </timestep>
    <timestep time="75.00">
        <vehicle id="background.1" x="183.89" y="-1.60" angle="90.00" type="human" speed="10.28" pos="183.89" lane="e0_0" slope="0.00"/>
        <vehicle id="background.2" x="42.09" y="-1.60" angle="90.00" type="human" speed="9.65" pos="42.09" lane="e0_0" slope="0.00"/>
        <vehicle id="background.3" x="24.19" y="-1.60" angle="90.00" type="human" speed="7.59" pos="24.19" lane="e0_0" slope="0.00"/>
        <vehicle id="background.4" x="10.38" y="-1.60" angle="90.00" type="human" speed="4.29" pos="10.38" lane="e0_0" slope="0.00"/>
        <vehicle id="ego" x="83.28" y="-1.60" angle="90.00" type="ego_type" speed="13.07" pos="83.28" lane="e0_0" slope="0.00"/>
    </timestep>
    <timestep time="75.50">
        <vehicle id="background.1" x="189.03" y="-1.60" angle="90.00" type="human" speed="10.28" pos="189.03" lane="e0_0" slope="0.00"/>
        <vehicle id="background.2" x="47.36" y="-1.60" angle="90.00" type="human" speed="10.55" pos="47.36" lane="e0_0" slope="0.00"/>
        <vehicle id="background.3" x="28.28" y="-1.60" angle="90.00" type="human" speed="8.18" pos="28.28" lane="e0_0" slope="0.00"/>
        <vehicle id="background.4" x="12.98" y="-1.60" angle="90.00" type="human" speed="5.19" pos="12.98" lane="e0_0" slope="0.00"/>
        <vehicle id="ego" x="89.82" y="-1.60" angle="90.00" type="ego_type" speed="13.07" pos="89.82" lane="e0_0" slope="0.00"/>
    </timestep>
    <timestep time="76.00">
        <vehicle id="background.1" x="194.37" y="-1.60" angle="90.00" type="human" speed="10.68" pos="194.37" lane="e0_0" slope="0.00"/>
        <vehicle id="background.2" x="52.90" y="-1.60" angle="90.00" type="human" speed="11.09" pos="52.90" lane="e0_0" slope="0.00"/>
        <vehicle id="background.3" x="32.80" y="-1.60" angle="90.00" type="human" speed="9.04" pos="32.80" lane="e0_0" slope="0.00"/>
        <vehicle id="background.4" x="15.86" y="-1.60" angle="90.00" type="human" speed="5.76" pos="15.86" lane="e0_0" slope="0.00"/>
        <vehicle id="ego" x="96.36" y="-1.60" angle="90.00" type="ego_type" speed="13.07" pos="96.36" lane="e0_0" slope="0.00"/>
    </timestep>
    <timestep time="76.50">
        <vehicle id="background.1" x="199.61" y="-1.60" angle="90.00" type="human" speed="10.49" pos="199.61" lane="e0_0" slope="0.00"/>
        <vehicle id="background.2" x="58.84" y="-1.60" angle="90.00" type="human" speed="11.87" pos="58.84" lane="e0_0" slope="0.00"/>
        <vehicle id="background.3" x="37.78" y="-1.60" angle="90.00" type="human" speed="9.97" pos="37.78" lane="e0_0" slope="0.00"/>
        <vehicle id="background.4" x="19.18" y="-1.60" angle="90.00" type="human" speed="6.65" pos="19.18" lane="e0_0" slope="0.00"/>
        <vehicle id="background.5" x="5.10" y="-1.60" angle="90.00" type="human" speed="6.61" pos="5.10" lane="e0_0" slope="0.00"/>
        <vehicle id="ego" x="102.89" y="-1.60" angle="90.00" type="ego_type" speed="13.07" pos="102.89" lane="e0_0" slope="0.00"/>
    </timestep>
    <timestep time="77.00">
        <vehicle id="background.1" x="204.88" y="-1.60" angle="90.00" type="human" speed="10.54" pos="204.88" lane="e0_0" slope="0.00"/>
        <vehicle id="background.2" x="64.97" y="-1.60" angle="90.00" type="human" speed="12.25" pos="64.97" lane="e0_0" slope="0.00"/>
        <vehicle id="background.3" x="43.23" y="-1.60" angle="90.00" type="human" speed="10.89" pos="43.23" lane="e0_0" slope="0.00"/>
        <vehicle id="background.4" x="22.81" y="-1.60" angle="90.00" type="human" speed="7.26" pos="22.81" lane="e0_0" slope="0.00"/>
        <vehicle id="background.5" x="8.39" y="-1.60" angle="90.00" type="human" speed="6.57" pos="8.39" lane="e0_0" slope="0.00"/>
        <vehicle id="ego" x="109.43" y="-1.60" angle="90.00" type="ego_type" speed="13.07" pos="109.43" lane="e0_0" slope="0.00"/>
    </timestep>
    <timestep time="77.50">
        <vehicle id="background.1" x="210.11" y="-1.60" angle="90.00" type="human" speed="10.46" pos="210.11" lane="e0_0" slope="0.00"/>
        <vehicle id="background.2" x="71.06" y="-1.60" angle="90.00" type="human" speed="12.18" pos="71.06" lane="e0_0" slope="0.00"/>
        <vehicle id="background.3" x="48.94" y="-1.60" angle="90.00" type="human" speed="11.43" pos="48.94" lane="e0_0" slope="0.00"/>
        <vehicle id="background.4" x="26.92" y="-1.60" angle="90.00" type="human" speed="8.22" pos="26.92" lane="e0_0" slope="0.00"/>
        <vehicle id="background.5" x="11.82" y="-1.60" angle="90.00" type="human" speed="6.86" pos="11.82" lane="e0_0" slope="0.00"/>
        <vehicle id="ego" x="115.97" y="-1.60" angle="90.00" type="ego_type" speed="13.07" pos="115.97" lane="e0_0" slope="0.00"/>
    </timestep>
    <timestep time="78.00">
        <vehicle id="background.1" x="215.34" y="-1.60" angle="90.00" type="human" speed="10.45" pos="215.34" lane="e0_0" slope="0.00"/>
        <vehicle id="background.2" x="77.21" y="-1.60" angle="90.00" type="human" speed="12.31" pos="77.21" lane="e0_0" slope="0.00"/>
        <vehicle id="background.3" x="55.07" y="-1.60" angle="90.00" type="human" speed="12.26" pos="55.07" lane="e0_0" slope="0.00"/>
        <vehicle id="background.4" x="31.38" y="-1.60" angle="90.00" type="human" speed="8.92" pos="31.38" lane="e0_0" slope="0.00"/>
        <vehicle id="background.5" x="15.58" y="-1.60" angle="90.00" type="human" speed="7.52" pos="15.58" lane="e0_0" slope="0.00"/>
        <vehicle id="ego" x="122.50" y="-1.60" angle="90.00" type="ego_type" speed="13.07" pos="122.50" lane="e0_0" slope="0.00"/>
    </timestep>
    <timestep time="78.50">
        <vehicle id="background.1" x="220.60" y="-1.60" angle="90.00" type="human" speed="10.52" pos="220.60" lane="e0_0" slope="0.00"/>
        <vehicle id="background.2" x="83.25" y="-1.60" angle="90.00" type="human" speed="12.09" pos="83.25" lane="e0_0" slope="0.00"/>