<?xml version="1.0" encoding="UTF-8"?>

<!-- generated on 2026-05-14 17:04:24 by Eclipse SUMO sumo Version 1.24.0
<sumoConfiguration xmlns:xsi="http://www.w3.org/2001/XMLSchema-instance" xsi:noNamespaceSchemaLocation="http://sumo.dlr.de/xsd/sumoConfiguration.xsd">

    <input>
        <net-file value="scenarios/simple_arterial/simple_arterial.net.xml"/>
        <route-files value="scenarios/simple_arterial/simple_arterial.rou.xml"/>
        <additional-files value="scenarios/simple_arterial/simple_arterial.tls.xml"/>
    </input>

    <output>
        <fcd-output value="runs/fcd_expert_default/episode_00032_seed_74.fcd.xml"/>
    </output>

    <time>
        <begin value="0"/>
        <end value="900"/>
        <step-length value="0.5"/>
    </time>

    <report>
        <no-warnings value="true"/>
    </report>

    <traci_server>
        <remote-port value="24542"/>
    </traci_server>

    <random_number>
        <seed value="74"/>
    </random_number>

</sumoConfiguration>
-->

<fcd-export xmlns:xsi="http://www.w3.org/2001/XMLSchema-instance" xsi:noNamespaceSchemaLocation="http://sumo.dlr.de/xsd/fcd_file.xsd">
    <timestep time="0.00"/>
    <timestep time="0.50"/>
    <timestep time="1.00"/>
    <timestep time="1.50"/>
    <timestep time="2.00"/>
    <timestep time="2.50"/>
    <timestep time="3.00"/>
    <timestep time="3.50"/>
    <timestep time="4.00"/>
    <timestep time="4.50"/>
    <timestep time="5.00"/>
    <timestep time="5.50"/>
    <timestep time="6.00"/>
    <timestep time="6.50"/>
    <timestep time="7.00"/>
    <timestep time="7.50"/>
    <timestep time="8.00"/>
    <timestep time="8.50"/>
    <timestep time="9.00"/>
    <timestep time="9.50"/>
    <timestep time="10.00"/>
    <timestep time="10.50"/>
    <timestep time="11.00"/>
    <timestep time="11.50"/>
    <timestep time="12.00"/>
    <timestep time="12.50"/>
    <timestep time="13.00"/>
    <timestep time="13.50"/>
    <timestep time="14.00"/>
    <timestep time="14.50"/>
    <timestep time="15.00">
        <vehicle id="background.0" x="5.10" y="-1.60" angle="90.00" type="human" speed="12.02" pos="5.10" lane="e0_0" slope="0.00"/>
    </timestep>
    <timestep time="15.50">
        <vehicle id="background.0" x="10.97" y="-1.60" angle="90.00" type="human" speed="11.74" pos="10.97" lane="e0_0" slope="0.00"/>
    </timestep>
    <timestep time="16.00">
        <vehicle id="background.0" x="16.80" y="-1.60" angle="90.00" type="human" speed="11.67" pos="16.80" lane="e0_0" slope="0.00"/>
    </timestep>
    <timestep time="16.50">
        <vehicle id="background.0" x="22.80" y="-1.60" angle="90.00" type="human" speed="11.99" pos="22.80" lane="e0_0" slope="0.00"/>
    </timestep>
    <timestep time="17.00">
        <vehicle id="background.0" x="28.62" y="-1.60" angle="90.00" type="human" speed="11.65" pos="28.62" lane="e0_0" slope="0.00"/>
    </timestep>
    <timestep time="17.50">
        <vehicle id="background.0" x="34.41" y="-1.60" angle="90.00" type="human" speed="11.58" pos="34.41" lane="e0_0" slope="0.00"/>
    </timestep>
    <timestep time="18.00">
        <vehicle id="background.0" x="40.34" y="-1.60" angle="90.00" type="human" speed="11.86" pos="40.34" lane="e0_0" slope="0.00"/>
    </timestep>
    <timestep time="18.50">
        <vehicle id="background.0" x="46.12" y="-1.60" angle="90.00" type="human" speed="11.56" pos="46.12" lane="e0_0" slope="0.00"/>
    </timestep>
    <timestep time="19.00">
        <vehicle id="background.0" x="52.04" y="-1.60" angle="90.00" type="human" speed="11.84" pos="52.04" lane="e0_0" slope="0.00"/>
    </timestep>
    <timestep time="19.50">
        <vehicle id="background.0" x="57.88" y="-1.60" angle="90.00" type="human" speed="11.68" pos="57.88" lane="e0_0" slope="0.00"/>
    </timestep>
    <timestep time="20.00">
        <vehicle id="background.0" x="63.76" y="-1.60" angle="90.00" type="human" speed="11.76" pos="63.76" lane="e0_0" slope="0.00"/>
        <vehicle id="background.1" x="5.10" y="-1.60" angle="90.00" type="human" speed="11.20" pos="5.10" lane="e0_0" slope="0.00"/>
    </timestep>
    <timestep time="20.50">
        <vehicle id="background.0" x="69.64" y="-1.60" angle="90.00" type="human" speed="11.75" pos="69.64" lane="e0_0" slope="0.00"/>
        <vehicle id="background.1" x="10.58" y="-1.60" angle="90.00" type="human" speed="10.96" pos="10.58" lane="e0_0" slope="0.00"/>
    </timestep>
    <timestep time="21.00">
        <vehicle id="background.0" x="75.60" y="-1.60" angle="90.00" type="human" speed="11.93" pos="75.60" lane="e0_0" slope="0.00"/>
        <vehicle id="background.1" x="15.95" y="-1.60" angle="90.00" type="human" speed="10.75" pos="15.95" lane="e0_0" slope="0.00"/>
    </timestep>
    <timestep time="21.50">
        <vehicle id="background.0" x="81.46" y="-1.60" angle="90.00" type="human" speed="11.71" pos="81.46" lane="e0_0" slope="0.00"/>
        <vehicle id="background.1" x="21.50" y="-1.60" angle="90.00" type="human" speed="11.10" pos="21.50" lane="e0_0" slope="0.00"/>
    </timestep>
    <timestep time="22.00">
        <vehicle id="background.0" x="87.38" y="-1.60" angle="90.00" type="human" speed="11.84" pos="87.38" lane="e0_0" slope="0.00"/>
        <vehicle id="background.1" x="27.09" y="-1.60" angle="90.00" type="human" speed="11.18" pos="27.09" lane="e0_0" slope="0.00"/>
    </timestep>
    <timestep time="22.50">
        <vehicle id="background.0" x="93.15" y="-1.60" angle="90.00" type="human" speed="11.56" pos="93.15" lane="e0_0" slope="0.00"/>
        <vehicle id="background.1" x="32.56" y="-1.60" angle="90.00" type="human" speed="10.94" pos="32.56" lane="e0_0" slope="0.00"/>
    </timestep>
    <timestep time="23.00">
        <vehicle id="background.0" x="99.00" y="-1.60" angle="90.00" type="human" speed="11.70" pos="99.00" lane="e0_0" slope="0.00"/>
        <vehicle id="background.1" x="38.01" y="-1.60" angle="90.00" type="human" speed="10.90" pos="38.01" lane="e0_0" slope="0.00"/>
    </timestep>
    <timestep time="23.50">
        <vehicle id="background.0" x="104.85" y="-1.60" angle="90.00" type="human" speed="11.69" pos="104.85" lane="e0_0" slope="0.00"/>
        <vehicle id="background.1" x="43.48" y="-1.60" angle="90.00" type="human" speed="10.94" pos="43.48" lane="e0_0" slope="0.00"/>
    </timestep>
    <timestep time="24.00">
        <vehicle id="background.0" x="110.63" y="-1.60" angle="90.00" type="human" speed="11.56" pos="110.63" lane="e0_0" slope="0.00"/>
        <vehicle id="background.1" x="48.90" y="-1.60" angle="90.00" type="human" speed="10.83" pos="48.90" lane="e0_0" slope="0.00"/>
    </timestep>
    <timestep time="24.50">
        <vehicle id="background.0" x="116.47" y="-1.60" angle="90.00" type="human" speed="11.69" pos="116.47" lane="e0_0" slope="0.00"/>
        <vehicle id="background.1" x="54.35" y="-1.60" angle="90.00" type="human" speed="10.90" pos="54.35" lane="e0_0" slope="0.00"/>
    </timestep>
    <timestep time="25.00">
        <vehicle id="background.0" x="122.42" y="-1.60" angle="90.00" type="human" speed="11.91" pos="122.42" lane="e0_0" slope="0.00"/>
        <vehicle id="background.1" x="59.81" y="-1.60" angle="90.00" type="human" speed="10.94" pos="59.81" lane="e0_0" slope="0.00"/>
    </timestep>
    <timestep time="25.50">
        <vehicle id="background.0" x="128.37" y="-1.60" angle="90.00" type="human" speed="11.90" pos="128.37" lane="e0_0" slope="0.00"/>
        <vehicle id="background.1" x="65.33" y="-1.60" angle="90.00" type="human" speed="11.03" pos="65.33" lane="e0_0" slope="0.00"/>
    </timestep>
    <timestep time="26.00">
        <vehicle id="background.0" x="134.33" y="-1.60" angle="90.00" type="human" speed="11.91" pos="134.33" lane="e0_0" slope="0.00"/>
        <vehicle id="background.1" x="70.83" y="-1.60" angle="90.00" type="human" speed="11.01" pos="70.83" lane="e0_0" slope="0.00"/>
    </timestep>
    <timestep time="26.50">
        <vehicle id="background.0" x="140.32" y="-1.60" angle="90.00" type="human" speed="11.98" pos="140.32" lane="e0_0" slope="0.00"/>
        <vehicle id="background.1" x="76.28" y="-1.60" angle="90.00" type="human" speed="10.90" pos="76.28" lane="e0_0" slope="0.00"/>
    </timestep>
    <timestep time="27.00">
        <vehicle id="background.0" x="146.28" y="-1.60" angle="90.00" type="human" speed="11.93" pos="146.28" lane="e0_0" slope="0.00"/>
        <vehicle id="background.1" x="81.77" y="-1.60" angle="90.00" type="human" speed="10.97" pos="81.77" lane="e0_0" slope="0.00"/>
        <vehicle id="background.2" x="5.10" y="-1.60" angle="90.00" type="human" speed="12.38" pos="5.10" lane="e0_0" slope="0.00"/>
    </timestep>
    <timestep time="27.50">
        <vehicle id="background.0" x="152.11" y="-1.60" angle="90.00" type="human" speed="11.66" pos="152.11" lane="e0_0" slope="0.00"/>
        <vehicle id="background.1" x="87.34" y="-1.60" angle="90.00" type="human" speed="11.14" pos="87.34" lane="e0_0" slope="0.00"/>
        <vehicle id="background.2" x="11.04" y="-1.60" angle="90.00" type="human" speed="11.88" pos="11.04" lane="e0_0" slope="0.00"/>
    </timestep>
    <timestep time="28.00">
        <vehicle id="background.0" x="158.03" y="-1.60" angle="90.00" type="human" speed="11.84" pos="158.03" lane="e0_0" slope="0.00"/>
        <vehicle id="background.1" x="92.90" y="-1.60" angle="90.00" type="human" speed="11.13" pos="92.90" lane="e0_0" slope="0.00"/>
        <vehicle id="background.2" x="17.08" y="-1.60" angle="90.00" type="human" speed="12.09" pos="17.08" lane="e0_0" slope="0.00"/>
    </timestep>
    <timestep time="28.50">
        <vehicle id="background.0" x="163.99" y="-1.60" angle="90.00" type="human" speed="11.91" pos="163.99" lane="e0_0" slope="0.00"/>
        <vehicle id="background.1" x="98.46" y="-1.60" angle="90.00" type="human" speed="11.11" pos="98.46" lane="e0_0" slope="0.00"/>
        <vehicle id="background.2" x="23.20" y="-1.60" angle="90.00" type="human" speed="12.24" pos="23.20" lane="e0_0" slope="0.00"/>
    </timestep>
    <timestep time="29.00">
        <vehicle id="background.0" x="169.86" y="-1.60" angle="90.00" type="human" speed="11.75" pos="169.86" lane="e0_0" slope="0.00"/>
        <vehicle id="background.1" x="103.87" y="-1.60" angle="90.00" type="human" speed="10.83" pos="103.87" lane="e0_0" slope="0.00"/>
        <vehicle id="background.2" x="29.35" y="-1.60" angle="90.00" type="human" speed="12.30" pos="29.35" lane="e0_0" slope="0.00"/>
    </timestep>
    <timestep time="29.50">
        <vehicle id="background.0" x="175.63" y="-1.60" angle="90.00" type="human" speed="11.53" pos="175.63" lane="e0_0" slope="0.00"/>
        <vehicle id="background.1" x="109.35" y="-1.60" angle="90.00" type="human" speed="10.95" pos="109.35" lane="e0_0" slope="0.00"/>
        <vehicle id="background.2" x="35.35" y="-1.60" angle="90.00" type="human" speed="11.99" pos="35.35" lane="e0_0" slope="0.00"/>
    </timestep>
    <timestep time="30.00">
        <vehicle id="background.0" x="181.49" y="-1.60" angle="90.00" type="human" speed="11.72" pos="181.49" lane="e0_0" slope="0.00"/>
        <vehicle id="background.1" x="114.77" y="-1.60" angle="90.00" type="human" speed="10.85" pos="114.77" lane="e0_0" slope="0.00"/>
        <vehicle id="background.2" x="41.30" y="-1.60" angle="90.00" type="human" speed="11.90" pos="41.30" lane="e0_0" slope="0.00"/>
    </timestep>
    <timestep time="30.50">
        <vehicle id="background.0" x="187.27" y="-1.60" angle="90.00" type="human" speed="11.55" pos="187.27" lane="e0_0" slope="0.00"/>
        <vehicle id="background.1" x="120.27" y="-1.60" angle="90.00" type="human" speed="11.00" pos="120.27" lane="e0_0" slope="0.00"/>
        <vehicle id="background.2" x="47.47" y="-1.60" angle="90.00" type="human" speed="12.34" pos="47.47" lane="e0_0" slope="0.00"/>
    </timestep>
    <timestep time="31.00">
        <vehicle id="background.0" x="193.06" y="-1.60" angle="90.00" type="human" speed="11.58" pos="193.06" lane="e0_0" slope="0.00"/>
        <vehicle id="background.1" x="125.82" y="-1.60" angle="90.00" type="human" speed="11.10" pos="125.82" lane="e0_0" slope="0.00"/>
        <vehicle id="background.2" x="53.49" y="-1.60" angle="90.00" type="human" speed="12.04" pos="53.49" lane="e0_0" slope="0.00"/>
    </timestep>
    <timestep time="31.50">
        <vehicle id="background.0" x="198.90" y="-1.60" angle="90.00" type="human" speed="11.69" pos="198.90" lane="e0_0" slope="0.00"/>
        <vehicle id="background.1" x="131.32" y="-1.60" angle="90.00" type="human" speed="11.00" pos="131.32" lane="e0_0" slope="0.00"/>
        <vehicle id="background.2" x="59.48" y="-1.60" angle="90.00" type="human" speed="11.98" pos="59.48" lane="e0_0" slope="0.00"/>
    </timestep>
    <timestep time="32.00">
        <vehicle id="background.0" x="204.67" y="-1.60" angle="90.00" type="human" speed="11.53" pos="204.67" lane="e0_0" slope="0.00"/>
        <vehicle id="background.1" x="136.77" y="-1.60" angle="90.00" type="human" speed="10.88" pos="136.77" lane="e0_0" slope="0.00"/>
        <vehicle id="background.2" x="65.58" y="-1.60" angle="90.00" type="human" speed="12.22" pos="65.58" lane="e0_0" slope="0.00"/>
    </timestep>
    <timestep time="32.50">
        <vehicle id="background.0" x="210.67" y="-1.60" angle="90.00" type="human" speed="12.01" pos="210.67" lane="e0_0" slope="0.00"/>
        <vehicle id="background.1" x="142.18" y="-1.60" angle="90.00" type="human" speed="10.83" pos="142.18" lane="e0_0" slope="0.00"/>
        <vehicle id="background.2" x="71.70" y="-1.60" angle="90.00" type="human" speed="12.24" pos="71.70" lane="e0_0" slope="0.00"/>
    </timestep>
    <timestep time="33.00">
        <vehicle id="background.0" x="216.44" y="-1.60" angle="90.00" type="human" speed="11.53" pos="216.44" lane="e0_0" slope="0.00"/>
        <vehicle id="background.1" x="147.76" y="-1.60" angle="90.00" type="human" speed="11.16" pos="147.76" lane="e0_0" slope="0.00"/>
        <vehicle id="background.2" x="77.69" y="-1.60" angle="90.00" type="human" speed="11.97" pos="77.69" lane="e0_0" slope="0.00"/>
    </timestep>
    <timestep time="33.50">
        <vehicle id="background.0" x="222.23" y="-1.60" angle="90.00" type="human" speed="11.59" pos="222.23" lane="e0_0" slope="0.00"/>
        <vehicle id="background.1" x="153.21" y="-1.60" angle="90.00" type="human" speed="10.89" pos="153.21" lane="e0_0" slope="0.00"/>
        <vehicle id="background.2" x="83.64" y="-1.60" angle="90.00" type="human" speed="11.90" pos="83.64" lane="e0_0" slope="0.00"/>
    </timestep>
    <timestep time="34.00">
        <vehicle id="background.0" x="228.13" y="-1.60" angle="90.00" type="human" speed="11.80" pos="228.13" lane="e0_0" slope="0.00"/>
        <vehicle id="background.1" x="158.63" y="-1.60" angle="90.00" type="human" speed="10.84" pos="158.63" lane="e0_0" slope="0.00"/>
        <vehicle id="background.2" x="89.66" y="-1.60" angle="90.00" type="human" speed="12.03" pos="89.66" lane="e0_0" slope="0.00"/>
    </timestep>
    <timestep time="34.50">
        <vehicle id="background.0" x="234.13" y="-1.60" angle="90.00" type="human" speed="12.01" pos="234.13" lane="e0_0" slope="0.00"/>
        <vehicle id="background.1" x="164.08" y="-1.60" angle="90.00" type="human" speed="10.90" pos="164.08" lane="e0_0" slope="0.00"/>
        <vehicle id="background.2" x="95.66" y="-1.60" angle="90.00" type="human" speed="12.00" pos="95.66" lane="e0_0" slope="0.00"/>
    </timestep>
    <timestep time="35.00">
        <vehicle id="background.0" x="240.09" y="-1.60" angle="90.00" type="human" speed="11.91" pos="240.09" lane="e0_0" slope="0.00"/>
        <vehicle id="background.1" x="169.46" y="-1.60" angle="90.00" type="human" speed="10.76" pos="169.46" lane="e0_0" slope="0.00"/>
        <vehicle id="background.2" x="101.77" y="-1.60" angle="90.00" type="human" speed="12.23" pos="101.77" lane="e0_0" slope="0.00"/>
    </timestep>
    <timestep time="35.50">
        <vehicle id="background.0" x="246.03" y="-1.60" angle="90.00" type="human" speed="11.89" pos="246.03" lane="e0_0" slope="0.00"/>
        <vehicle id="background.1" x="174.85" y="-1.60" angle="90.00" type="human" speed="10.80" pos="174.85" lane="e0_0" slope="0.00"/>
        <vehicle id="background.2" x="107.73" y="-1.60" angle="90.00" type="human" speed="11.91" pos="107.73" lane="e0_0" slope="0.00"/>
    </timestep>
    <timestep time="36.00">
        <vehicle id="background.0" x="251.90" y="-1.60" angle="90.00" type="human" speed="11.73" pos="251.90" lane="e0_0" slope="0.00"/>
        <vehicle id="background.1" x="180.35" y="-1.60" angle="90.00" type="human" speed="11.00" pos="180.35" lane="e0_0" slope="0.00"/>
        <vehicle id="background.2" x="113.80" y="-1.60" angle="90.00" type="human" speed="12.14" pos="113.80" lane="e0_0" slope="0.00"/>
    </timestep>
    <timestep time="36.50">
        <vehicle id="background.0" x="257.81" y="-1.60" angle="90.00" type="human" speed="11.82" pos="257.81" lane="e0_0" slope="0.00"/>
        <vehicle id="background.1" x="185.87" y="-1.60" angle="90.00" type="human" speed="11.03" pos="185.87" lane="e0_0" slope="0.00"/>
        <vehicle id="background.2" x="119.94" y="-1.60" angle="90.00" type="human" speed="12.28" pos="119.94" lane="e0_0" slope="0.00"/>
    </timestep>
    <timestep time="37.00">
        <vehicle id="background.0" x="263.69" y="-1.60" angle="90.00" type="human" speed="11.76" pos="263.69" lane="e0_0" slope="0.00"/>
        <vehicle id="background.1" x="191.22" y="-1.60" angle="90.00" type="human" speed="10.71" pos="191.22" lane="e0_0" slope="0.00"/>
        <vehicle id="background.2" x="126.12" y="-1.60" angle="90.00" type="human" speed="12.37" pos="126.12" lane="e0_0" slope="0.00"/>
    </timestep>
    <timestep time="37.50">
        <vehicle id="background.0" x="269.62" y="-1.60" angle="90.00" type="human" speed="11.87" pos="269.62" lane="e0_0" slope="0.00"/>
        <vehicle id="background.1" x="196.64" y="-1.60" angle="90.00" type="human" speed="10.83" pos="196.64" lane="e0_0" slope="0.00"/>
        <vehicle id="background.2" x="132.27" y="-1.60" angle="90.00" type="human" speed="12.29" pos="132.27" lane="e0_0" slope="0.00"/>
    </timestep>
    <timestep time="38.00">
        <vehicle id="background.0" x="275.48" y="-1.60" angle="90.00" type="human" speed="11.72" pos="275.48" lane="e0_0" slope="0.00"/>
        <vehicle id="background.1" x="202.24" y="-1.60" angle="90.00" type="human" speed="11.20" pos="202.24" lane="e0_0" slope="0.00"/>
        <vehicle id="background.2" x="138.32" y="-1.60" angle="90.00" type="human" speed="12.11" pos="138.32" lane="e0_0" slope="0.00"/>
    </timestep>
    <timestep time="38.50">
        <vehicle id="background.0" x="281.29" y="-1.60" angle="90.00" type="human" speed="11.62" pos="281.29" lane="e0_0" slope="0.00"/>
        <vehicle id="background.1" x="207.75" y="-1.60" angle="90.00" type="human" speed="11.03" pos="207.75" lane="e0_0" slope="0.00"/>
        <vehicle id="background.2" x="144.38" y="-1.60" angle="90.00" type="human" speed="12.13" pos="144.38" lane="e0_0" slope="0.00"/>
    </timestep>
    <timestep time="39.00">
        <vehicle id="background.0" x="287.20" y="-1.60" angle="90.00" type="human" speed="11.81" pos="287.20" lane="e0_0" slope="0.00"/>
        <vehicle id="background.1" x="213.24" y="-1.60" angle="90.00" type="human" speed="10.97" pos="213.24" lane="e0_0" slope="0.00"/>
        <vehicle id="background.2" x="150.46" y="-1.60" angle="90.00" type="human" speed="12.14" pos="150.46" lane="e0_0" slope="0.00"/>
    </timestep>
    <timestep time="39.50">
        <vehicle id="background.0" x="293.01" y="-1.60" angle="90.00" type="human" speed="11.63" pos="293.01" lane="e0_0" slope="0.00"/>
        <vehicle id="background.1" x="218.77" y="-1.60" angle="90.00" type="human" speed="11.06" pos="218.77" lane="e0_0" slope="0.00"/>
        <vehicle id="background.2" x="156.57" y="-1.60" angle="90.00" type="human" speed="12.24" pos="156.57" lane="e0_0" slope="0.00"/>
    </timestep>
    <timestep time="40.00">
        <vehicle id="background.0" x="298.86" y="-1.60" angle="90.00" type="human" speed="11.69" pos="298.86" lane="e0_0" slope="0.00"/>
        <vehicle id="background.1" x="224.34" y="-1.60" angle="90.00" type="human" speed="11.15" pos="224.34" lane="e0_0" slope="0.00"/>
        <vehicle id="background.2" x="162.59" y="-1.60" angle="90.00" type="human" speed="12.02" pos="162.59" lane="e0_0" slope="0.00"/>
    </timestep>
    <timestep time="40.50">
        <vehicle id="background.0" x="304.55" y="-1.60" angle="90.00" type="human" speed="11.58" pos="4.55" lane="e1_0" slope="0.00"/>
        <vehicle id="background.1" x="229.81" y="-1.60" angle="90.00" type="human" speed="10.94" pos="229.81" lane="e0_0" slope="0.00"/>
        <vehicle id="background.2" x="168.54" y="-1.60" angle="90.00" type="human" speed="11.91" pos="168.54" lane="e0_0" slope="0.00"/>
    </timestep>
    <timestep time="41.00">
        <vehicle id="background.0" x="310.48" y="-1.60" angle="90.00" type="human" speed="11.87" pos="10.48" lane="e1_0" slope="0.00"/>
        <vehicle id="background.1" x="235.38" y="-1.60" angle="90.00" type="human" speed="11.13" pos="235.38" lane="e0_0" slope="0.00"/>
        <vehicle id="background.2" x="174.58" y="-1.60" angle="90.00" type="human" speed="12.08" pos="174.58" lane="e0_0" slope="0.00"/>
    </timestep>
    <timestep time="41.50">
        <vehicle id="background.0" x="316.36" y="-1.60" angle="90.00" type="human" speed="11.76" pos="16.36" lane="e1_0" slope="0.00"/>
        <vehicle id="background.1" x="240.84" y="-1.60" angle="90.00" type="human" speed="10.92" pos="240.84" lane="e0_0" slope="0.00"/>
        <vehicle id="background.2" x="180.61" y="-1.60" angle="90.00" type="human" speed="12.06" pos="180.61" lane="e0_0" slope="0.00"/>
        <vehicle id="background.3" x="5.10" y="-1.60" angle="90.00" type="human" speed="13.89" pos="5.10" lane="e0_0" slope="0.00"/>
    </timestep>
    <timestep time="42.00">
        <vehicle id="background.0" x="322.17" y="-1.60" angle="90.00" type="human" speed="11.61" pos="22.17" lane="e1_0" slope="0.00"/>
        <vehicle id="background.1" x="246.27" y="-1.60" angle="90.00" type="human" speed="10.88" pos="246.27" lane="e0_0" slope="0.00"/>
        <vehicle id="background.2" x="186.67" y="-1.60" angle="90.00" type="human" speed="12.13" pos="186.67" lane="e0_0" slope="0.00"/>
        <vehicle id="background.3" x="12.03" y="-1.60" angle="90.00" type="human" speed="13.86" pos="12.03" lane="e0_0" slope="0.00"/>
    </timestep>
    <timestep time="42.50">
        <vehicle id="background.0" x="328.18" y="-1.60" angle="90.00" type="human" speed="12.01" pos="28.18" lane="e1_0" slope="0.00"/>
        <vehicle id="background.1" x="251.69" y="-1.60" angle="90.00" type="human" speed="10.84" pos="251.69" lane="e0_0" slope="0.00"/>
        <vehicle id="background.2" x="192.71" y="-1.60" angle="90.00" type="human" speed="12.07" pos="192.71" lane="e0_0" slope="0.00"/>
        <vehicle id="background.3" x="18.73" y="-1.60" angle="90.00" type="human" speed="13.41" pos="18.73" lane="e0_0" slope="0.00"/>
    </timestep>
    <timestep time="43.00">
        <vehicle id="background.0" x="334.10" y="-1.60" angle="90.00" type="human" speed="11.86" pos="34.10" lane="e1_0" slope="0.00"/>
        <vehicle id="background.1" x="257.05" y="-1.60" angle="90.00" type="human" speed="10.72" pos="257.05" lane="e0_0" slope="0.00"/>
        <vehicle id="background.2" x="198.76" y="-1.60" angle="90.00" type="human" speed="12.11" pos="198.76" lane="e0_0" slope="0.00"/>
        <vehicle id="background.3" x="25.67" y="-1.60" angle="90.00" type="human" speed="13.86" pos="25.67" lane="e0_0" slope="0.00"/>
    </timestep>
    <timestep time="43.50">
        <vehicle id="background.0" x="339.94" y="-1.60" angle="90.00" type="human" speed="11.67" pos="39.94" lane="e1_0" slope="0.00"/>
        <vehicle id="background.1" x="262.45" y="-1.60" angle="90.00" type="human" speed="10.80" pos="262.45" lane="e0_0" slope="0.00"/>
        <vehicle id="background.2" x="204.92" y="-1.60" angle="90.00" type="human" speed="12.31" pos="204.92" lane="e0_0" slope="0.00"/>
        <vehicle id="background.3" x="32.49" y="-1.60" angle="90.00" type="human" speed="13.65" pos="32.49" lane="e0_0" slope="0.00"/>
    </timestep>
    <timestep time="44.00">
        <vehicle id="background.0" x="345.90" y="-1.60" angle="90.00" type="human" speed="11.93" pos="45.90" lane="e1_0" slope="0.00"/>
        <vehicle id="background.1" x="267.85" y="-1.60" angle="90.00" type="human" speed="10.80" pos="267.85" lane="e0_0" slope="0.00"/>
        <vehicle id="background.2" x="210.92" y="-1.60" angle="90.00" type="human" speed="12.00" pos="210.92" lane="e0_0" slope="0.00"/>
        <vehicle id="background.3" x="39.24" y="-1.60" angle="90.00" type="human" speed="13.50" pos="39.24" lane="e0_0" slope="0.00"/>
    </timestep>
    <timestep time="44.50">
        <vehicle id="background.1" x="273.30" y="-1.60" angle="90.00" type="human" speed="10.90" pos="273.30" lane="e0_0" slope="0.00"/>
        <vehicle id="background.2" x="217.09" y="-1.60" angle="90.00" type="human" speed="12.36" pos="217.09" lane="e0_0" slope="0.00"/>
        <vehicle id="background.3" x="46.07" y="-1.60" angle="90.00" type="human" speed="13.65" pos="46.07" lane="e0_0" slope="0.00"/>
    </timestep>
    <timestep time="45.00">
        <vehicle id="background.1" x="278.72" y="-1.60" angle="90.00" type="human" speed="10.83" pos="278.72" lane="e0_0" slope="0.00"/>
        <vehicle id="background.2" x="223.16" y="-1.60" angle="90.00" type="human" speed="12.14" pos="223.16" lane="e0_0" slope="0.00"/>
        <vehicle id="background.3" x="52.96" y="-1.60" angle="90.00" type="human" speed="13.80" pos="52.96" lane="e0_0" slope="0.00"/>
    </timestep>
    <timestep time="45.50">
        <vehicle id="background.1" x="284.20" y="-1.60" angle="90.00" type="human" speed="10.96" pos="284.20" lane="e0_0" slope="0.00"/>
        <vehicle id="background.2" x="229.20" y="-1.60" angle="90.00" type="human" speed="12.08" pos="229.20" lane="e0_0" slope="0.00"/>
        <vehicle id="background.3" x="59.80" y="-1.60" angle="90.00" type="human" speed="13.68" pos="59.80" lane="e0_0" slope="0.00"/>
    </timestep>
    <timestep time="46.00">
        <vehicle id="background.1" x="289.36" y="-1.60" angle="90.00" type="human" speed="10.32" pos="289.36" lane="e0_0" slope="0.00"/>
        <vehicle id="background.2" x="235.19" y="-1.60" angle="90.00" type="human" speed="11.98" pos="235.19" lane="e0_0" slope="0.00"/>
        <vehicle id="background.3" x="66.68" y="-1.60" angle="90.00" type="human" speed="13.76" pos="66.68" lane="e0_0" slope="0.00"/>
    </timestep>
    <timestep time="46.50">
        <vehicle id="background.1" x="293.43" y="-1.60" angle="90.00" type="human" speed="8.14" pos="293.43" lane="e0_0" slope="0.00"/>
        <vehicle id="background.2" x="241.22" y="-1.60" angle="90.00" type="human" speed="12.05" pos="241.22" lane="e0_0" slope="0.00"/>
        <vehicle id="background.3" x="73.59" y="-1.60" angle="90.00" type="human" speed="13.82" pos="73.59" lane="e0_0" slope="0.00"/>
    </timestep>
    <timestep time="47.00">
        <vehicle id="background.1" x="296.37" y="-1.60" angle="90.00" type="human" speed="5.89" pos="296.37" lane="e0_0" slope="0.00"/>
        <vehicle id="background.2" x="247.32" y="-1.60" angle="90.00" type="human" speed="12.21" pos="247.32" lane="e0_0" slope="0.00"/>
        <vehicle id="background.3" x="80.47" y="-1.60" angle="90.00" type="human" speed="13.75" pos="80.47" lane="e0_0" slope="0.00"/>
    </timestep>
    <timestep time="47.50">
        <vehicle id="background.1" x="298.22" y="-1.60" angle="90.00" type="human" speed="3.69" pos="298.22" lane="e0_0" slope="0.00"/>
        <vehicle id="background.2" x="253.26" y="-1.60" angle="90.00" type="human" speed="11.88" pos="253.26" lane="e0_0" slope="0.00"/>
        <vehicle id="background.3" x="87.24" y="-1.60" angle="90.00" type="human" speed="13.54" pos="87.24" lane="e0_0" slope="0.00"/>
    </timestep>
    <timestep time="48.00">
        <vehicle id="background.1" x="298.93" y="-1.60" angle="90.00" type="human" speed="1.44" pos="298.93" lane="e0_0" slope="0.00"/>
        <vehicle id="background.2" x="259.30" y="-1.60" angle="90.00" type="human" speed="12.09" pos="259.30" lane="e0_0" slope="0.00"/>
        <vehicle id="background.3" x="94.16" y="-1.60" angle="90.00" type="human" speed="13.85" pos="94.16" lane="e0_0" slope="0.00"/>
    </timestep>
    <timestep time="48.50">
        <vehicle id="background.1" x="298.99" y="-1.60" angle="90.00" type="human" speed="0.12" pos="298.99" lane="e0_0" slope="0.00"/>
        <vehicle id="background.2" x="265.41" y="-1.60" angle="90.00" type="human" speed="12.21" pos="265.41" lane="e0_0" slope="0.00"/>
        <vehicle id="background.3" x="100.97" y="-1.60" angle="90.00" type="human" speed="13.62" pos="100.97" lane="e0_0" slope="0.00"/>
    </timestep>
    <timestep time="49.00">
        <vehicle id="background.1" x="299.00" y="-1.60" angle="90.00" type="human" speed="0.01" pos="299.00" lane="e0_0" slope="0.00"/>
        <vehicle id="background.2" x="271.34" y="-1.60" angle="90.00" type="human" speed="11.87" pos="271.34" lane="e0_0" slope="0.00"/>
        <vehicle id="background.3" x="107.86" y="-1.60" angle="90.00" type="human" speed="13.77" pos="107.86" lane="e0_0" slope="0.00"/>
    </timestep>
    <timestep time="49.50">
        <vehicle id="background.1" x="299.00" y="-1.60" angle="90.00" type="human" speed="0.00" pos="299.00" lane="e0_0" slope="0.00"/>
        <vehicle id="background.2" x="276.50" y="-1.60" angle="90.00" type="human" speed="10.30" pos="276.50" lane="e0_0" slope="0.00"/>
        <vehicle id="background.3" x="114.78" y="-1.60" angle="90.00" type="human" speed="13.85" pos="114.78" lane="e0_0" slope="0.00"/>
    </timestep>
    <timestep time="50.00">