<?xml version="1.0" encoding="UTF-8"?>

<!-- generated on 2026-05-14 17:04:12 by Eclipse SUMO sumo Version 1.24.0
<sumoConfiguration xmlns:xsi="http://www.w3.org/2001/XMLSchema-instance" xsi:noNamespaceSchemaLocation="http://sumo.dlr.de/xsd/sumoConfiguration.xsd">

    <input>
        <net-file value="scenarios/simple_arterial/simple_arterial.net.xml"/>
        <route-files value="scenarios/simple_arterial/simple_arterial.rou.xml"/>
        <additional-files value="scenarios/simple_arterial/simple_arterial.tls.xml"/>
    </input>

    <output>
        <fcd-output value="runs/fcd_expert_default/episode_00021_seed_63.fcd.xml"/>
    </output>

    <time>
        <begin value="0"/>
        <end value="900"/>
        <step-length value="0.5"/>
    </time>

    <report>
        <no-warnings value="true"/>
    </report>

    <traci_server>
        <remote-port value="24542"/>
    </traci_server>

    <random_number>
        <seed value="63"/>
    </random_number>

</sumoConfiguration>
-->

<fcd-export xmlns:xsi="http://www.w3.org/2001/XMLSchema-instance" xsi:noNamespaceSchemaLocation="http://sumo.dlr.de/xsd/fcd_file.xsd">
    <timestep time="0.00"/>
    <timestep time="0.50"/>
    <timestep time="1.00"/>
    <timestep time="1.50">
        <vehicle id="background.0" x="5.10" y="-1.60" angle="90.00" type="human" speed="13.89" pos="5.10" lane="e0_0" slope="0.00"/>
    </timestep>
    <timestep time="2.00">
        <vehicle id="background.0" x="11.95" y="-1.60" angle="90.00" type="human" speed="13.70" pos="11.95" lane="e0_0" slope="0.00"/>
    </timestep>
    <timestep time="2.50">
        <vehicle id="background.0" x="18.70" y="-1.60" angle="90.00" type="human" speed="13.50" pos="18.70" lane="e0_0" slope="0.00"/>
    </timestep>
    <timestep time="3.00">
        <vehicle id="background.0" x="25.51" y="-1.60" angle="90.00" type="human" speed="13.61" pos="25.51" lane="e0_0" slope="0.00"/>
    </timestep>
    <timestep time="3.50">
        <vehicle id="background.0" x="32.31" y="-1.60" angle="90.00" type="human" speed="13.61" pos="32.31" lane="e0_0" slope="0.00"/>
    </timestep>
    <timestep time="4.00">
        <vehicle id="background.0" x="39.11" y="-1.60" angle="90.00" type="human" speed="13.59" pos="39.11" lane="e0_0" slope="0.00"/>
    </timestep>
    <timestep time="4.50">
        <vehicle id="background.0" x="45.84" y="-1.60" angle="90.00" type="human" speed="13.46" pos="45.84" lane="e0_0" slope="0.00"/>
    </timestep>
    <timestep time="5.00">
        <vehicle id="background.0" x="52.67" y="-1.60" angle="90.00" type="human" speed="13.67" pos="52.67" lane="e0_0" slope="0.00"/>
    </timestep>
    <timestep time="5.50">
        <vehicle id="background.0" x="59.53" y="-1.60" angle="90.00" type="human" speed="13.73" pos="59.53" lane="e0_0" slope="0.00"/>
    </timestep>
    <timestep time="6.00">
        <vehicle id="background.0" x="66.37" y="-1.60" angle="90.00" type="human" speed="13.66" pos="66.37" lane="e0_0" slope="0.00"/>
    </timestep>
    <timestep time="6.50">
        <vehicle id="background.0" x="73.16" y="-1.60" angle="90.00" type="human" speed="13.58" pos="73.16" lane="e0_0" slope="0.00"/>
    </timestep>
    <timestep time="7.00">
        <vehicle id="background.0" x="80.02" y="-1.60" angle="90.00" type="human" speed="13.73" pos="80.02" lane="e0_0" slope="0.00"/>
    </timestep>
    <timestep time="7.50">
        <vehicle id="background.0" x="86.75" y="-1.60" angle="90.00" type="human" speed="13.46" pos="86.75" lane="e0_0" slope="0.00"/>
    </timestep>
    <timestep time="8.00">
        <vehicle id="background.0" x="93.62" y="-1.60" angle="90.00" type="human" speed="13.73" pos="93.62" lane="e0_0" slope="0.00"/>
    </timestep>
    <timestep time="8.50">
        <vehicle id="background.0" x="100.38" y="-1.60" angle="90.00" type="human" speed="13.53" pos="100.38" lane="e0_0" slope="0.00"/>
    </timestep>
    <timestep time="9.00">
        <vehicle id="background.0" x="107.26" y="-1.60" angle="90.00" type="human" speed="13.74" pos="107.26" lane="e0_0" slope="0.00"/>
    </timestep>
    <timestep time="9.50">
        <vehicle id="background.0" x="113.97" y="-1.60" angle="90.00" type="human" speed="13.42" pos="113.97" lane="e0_0" slope="0.00"/>
    </timestep>
    <timestep time="10.00">
        <vehicle id="background.0" x="120.78" y="-1.60" angle="90.00" type="human" speed="13.62" pos="120.78" lane="e0_0" slope="0.00"/>
    </timestep>
    <timestep time="10.50">
        <vehicle id="background.0" x="127.52" y="-1.60" angle="90.00" type="human" speed="13.47" pos="127.52" lane="e0_0" slope="0.00"/>
    </timestep>
    <timestep time="11.00">
        <vehicle id="background.0" x="134.36" y="-1.60" angle="90.00" type="human" speed="13.69" pos="134.36" lane="e0_0" slope="0.00"/>
    </timestep>
    <timestep time="11.50">
        <vehicle id="background.0" x="141.18" y="-1.60" angle="90.00" type="human" speed="13.63" pos="141.18" lane="e0_0" slope="0.00"/>
    </timestep>
    <timestep time="12.00">
        <vehicle id="background.0" x="147.94" y="-1.60" angle="90.00" type="human" speed="13.53" pos="147.94" lane="e0_0" slope="0.00"/>
    </timestep>
    <timestep time="12.50">
        <vehicle id="background.0" x="154.65" y="-1.60" angle="90.00" type="human" speed="13.41" pos="154.65" lane="e0_0" slope="0.00"/>
    </timestep>
    <timestep time="13.00">
        <vehicle id="background.0" x="161.46" y="-1.60" angle="90.00" type="human" speed="13.62" pos="161.46" lane="e0_0" slope="0.00"/>
    </timestep>
    <timestep time="13.50">
        <vehicle id="background.0" x="168.26" y="-1.60" angle="90.00" type="human" speed="13.61" pos="168.26" lane="e0_0" slope="0.00"/>
    </timestep>
    <timestep time="14.00">
        <vehicle id="background.0" x="175.06" y="-1.60" angle="90.00" type="human" speed="13.60" pos="175.06" lane="e0_0" slope="0.00"/>
    </timestep>
    <timestep time="14.50">
        <vehicle id="background.0" x="181.97" y="-1.60" angle="90.00" type="human" speed="13.83" pos="181.97" lane="e0_0" slope="0.00"/>
    </timestep>
    <timestep time="15.00">
        <vehicle id="background.0" x="188.88" y="-1.60" angle="90.00" type="human" speed="13.81" pos="188.88" lane="e0_0" slope="0.00"/>
    </timestep>
    <timestep time="15.50">
        <vehicle id="background.0" x="195.58" y="-1.60" angle="90.00" type="human" speed="13.41" pos="195.58" lane="e0_0" slope="0.00"/>
    </timestep>
    <timestep time="16.00">
        <vehicle id="background.0" x="202.52" y="-1.60" angle="90.00" type="human" speed="13.88" pos="202.52" lane="e0_0" slope="0.00"/>
    </timestep>
    <timestep time="16.50">
        <vehicle id="background.0" x="209.23" y="-1.60" angle="90.00" type="human" speed="13.42" pos="209.23" lane="e0_0" slope="0.00"/>
    </timestep>
    <timestep time="17.00">
        <vehicle id="background.0" x="216.12" y="-1.60" angle="90.00" type="human" speed="13.79" pos="216.12" lane="e0_0" slope="0.00"/>
        <vehicle id="background.1" x="5.10" y="-1.60" angle="90.00" type="human" speed="13.82" pos="5.10" lane="e0_0" slope="0.00"/>
    </timestep>
    <timestep time="17.50">
        <vehicle id="background.0" x="222.82" y="-1.60" angle="90.00" type="human" speed="13.41" pos="222.82" lane="e0_0" slope="0.00"/>
        <vehicle id="background.1" x="12.00" y="-1.60" angle="90.00" type="human" speed="13.81" pos="12.00" lane="e0_0" slope="0.00"/>
    </timestep>
    <timestep time="18.00">
        <vehicle id="background.0" x="229.57" y="-1.60" angle="90.00" type="human" speed="13.49" pos="229.57" lane="e0_0" slope="0.00"/>
        <vehicle id="background.1" x="18.76" y="-1.60" angle="90.00" type="human" speed="13.50" pos="18.76" lane="e0_0" slope="0.00"/>
        <vehicle id="background.2" x="5.10" y="-1.60" angle="90.00" type="human" speed="11.40" pos="5.10" lane="e0_0" slope="0.00"/>
    </timestep>
    <timestep time="18.50">
        <vehicle id="background.0" x="236.35" y="-1.60" angle="90.00" type="human" speed="13.57" pos="236.35" lane="e0_0" slope="0.00"/>
        <vehicle id="background.1" x="25.61" y="-1.60" angle="90.00" type="human" speed="13.71" pos="25.61" lane="e0_0" slope="0.00"/>
        <vehicle id="background.2" x="10.73" y="-1.60" angle="90.00" type="human" speed="11.25" pos="10.73" lane="e0_0" slope="0.00"/>
    </timestep>
    <timestep time="19.00">
        <vehicle id="background.0" x="243.20" y="-1.60" angle="90.00" type="human" speed="13.69" pos="243.20" lane="e0_0" slope="0.00"/>
        <vehicle id="background.1" x="32.31" y="-1.60" angle="90.00" type="human" speed="13.40" pos="32.31" lane="e0_0" slope="0.00"/>
        <vehicle id="background.2" x="16.54" y="-1.60" angle="90.00" type="human" speed="11.62" pos="16.54" lane="e0_0" slope="0.00"/>
    </timestep>
    <timestep time="19.50">
        <vehicle id="background.0" x="249.98" y="-1.60" angle="90.00" type="human" speed="13.56" pos="249.98" lane="e0_0" slope="0.00"/>
        <vehicle id="background.1" x="39.22" y="-1.60" angle="90.00" type="human" speed="13.82" pos="39.22" lane="e0_0" slope="0.00"/>
        <vehicle id="background.2" x="22.28" y="-1.60" angle="90.00" type="human" speed="11.49" pos="22.28" lane="e0_0" slope="0.00"/>
    </timestep>
    <timestep time="20.00">
        <vehicle id="background.0" x="256.91" y="-1.60" angle="90.00" type="human" speed="13.87" pos="256.91" lane="e0_0" slope="0.00"/>
        <vehicle id="background.1" x="46.09" y="-1.60" angle="90.00" type="human" speed="13.74" pos="46.09" lane="e0_0" slope="0.00"/>
        <vehicle id="background.2" x="28.43" y="-1.60" angle="90.00" type="human" speed="12.30" pos="28.43" lane="e0_0" slope="0.00"/>
    </timestep>
    <timestep time="20.50">
        <vehicle id="background.0" x="263.69" y="-1.60" angle="90.00" type="human" speed="13.55" pos="263.69" lane="e0_0" slope="0.00"/>
        <vehicle id="background.1" x="52.95" y="-1.60" angle="90.00" type="human" speed="13.71" pos="52.95" lane="e0_0" slope="0.00"/>
        <vehicle id="background.2" x="34.76" y="-1.60" angle="90.00" type="human" speed="12.66" pos="34.76" lane="e0_0" slope="0.00"/>
    </timestep>
    <timestep time="21.00">
        <vehicle id="background.0" x="270.53" y="-1.60" angle="90.00" type="human" speed="13.69" pos="270.53" lane="e0_0" slope="0.00"/>
        <vehicle id="background.1" x="59.63" y="-1.60" angle="90.00" type="human" speed="13.37" pos="59.63" lane="e0_0" slope="0.00"/>
        <vehicle id="background.2" x="40.98" y="-1.60" angle="90.00" type="human" speed="12.44" pos="40.98" lane="e0_0" slope="0.00"/>
    </timestep>
    <timestep time="21.50">
        <vehicle id="background.0" x="277.46" y="-1.60" angle="90.00" type="human" speed="13.86" pos="277.46" lane="e0_0" slope="0.00"/>
        <vehicle id="background.1" x="66.48" y="-1.60" angle="90.00" type="human" speed="13.69" pos="66.48" lane="e0_0" slope="0.00"/>
        <vehicle id="background.2" x="47.24" y="-1.60" angle="90.00" type="human" speed="12.51" pos="47.24" lane="e0_0" slope="0.00"/>
    </timestep>
    <timestep time="22.00">
        <vehicle id="background.0" x="284.26" y="-1.60" angle="90.00" type="human" speed="13.59" pos="284.26" lane="e0_0" slope="0.00"/>
        <vehicle id="background.1" x="73.38" y="-1.60" angle="90.00" type="human" speed="13.81" pos="73.38" lane="e0_0" slope="0.00"/>
        <vehicle id="background.2" x="53.76" y="-1.60" angle="90.00" type="human" speed="13.05" pos="53.76" lane="e0_0" slope="0.00"/>
    </timestep>
    <timestep time="22.50">
        <vehicle id="background.0" x="291.09" y="-1.60" angle="90.00" type="human" speed="13.67" pos="291.09" lane="e0_0" slope="0.00"/>
        <vehicle id="background.1" x="80.24" y="-1.60" angle="90.00" type="human" speed="13.72" pos="80.24" lane="e0_0" slope="0.00"/>
        <vehicle id="background.2" x="60.43" y="-1.60" angle="90.00" type="human" speed="13.33" pos="60.43" lane="e0_0" slope="0.00"/>
    </timestep>
    <timestep time="23.00">
        <vehicle id="background.0" x="297.99" y="-1.60" angle="90.00" type="human" speed="13.80" pos="297.99" lane="e0_0" slope="0.00"/>
        <vehicle id="background.1" x="87.12" y="-1.60" angle="90.00" type="human" speed="13.75" pos="87.12" lane="e0_0" slope="0.00"/>
        <vehicle id="background.2" x="66.88" y="-1.60" angle="90.00" type="human" speed="12.90" pos="66.88" lane="e0_0" slope="0.00"/>
    </timestep>
    <timestep time="23.50">
        <vehicle id="background.0" x="304.67" y="-1.60" angle="90.00" type="human" speed="13.56" pos="4.67" lane="e1_0" slope="0.00"/>
        <vehicle id="background.1" x="93.86" y="-1.60" angle="90.00" type="human" speed="13.48" pos="93.86" lane="e0_0" slope="0.00"/>
        <vehicle id="background.2" x="73.38" y="-1.60" angle="90.00" type="human" speed="13.01" pos="73.38" lane="e0_0" slope="0.00"/>
        <vehicle id="background.3" x="5.10" y="-1.60" angle="90.00" type="human" speed="12.98" pos="5.10" lane="e0_0" slope="0.00"/>
    </timestep>
    <timestep time="24.00">
        <vehicle id="background.0" x="311.56" y="-1.60" angle="90.00" type="human" speed="13.78" pos="11.56" lane="e1_0" slope="0.00"/>
        <vehicle id="background.1" x="100.68" y="-1.60" angle="90.00" type="human" speed="13.63" pos="100.68" lane="e0_0" slope="0.00"/>
        <vehicle id="background.2" x="79.84" y="-1.60" angle="90.00" type="human" speed="12.91" pos="79.84" lane="e0_0" slope="0.00"/>
        <vehicle id="background.3" x="11.59" y="-1.60" angle="90.00" type="human" speed="12.98" pos="11.59" lane="e0_0" slope="0.00"/>
    </timestep>
    <timestep time="24.50">
        <vehicle id="background.0" x="318.29" y="-1.60" angle="90.00" type="human" speed="13.46" pos="18.29" lane="e1_0" slope="0.00"/>
        <vehicle id="background.1" x="107.48" y="-1.60" angle="90.00" type="human" speed="13.62" pos="107.48" lane="e0_0" slope="0.00"/>
        <vehicle id="background.2" x="86.53" y="-1.60" angle="90.00" type="human" speed="13.38" pos="86.53" lane="e0_0" slope="0.00"/>
        <vehicle id="background.3" x="17.94" y="-1.60" angle="90.00" type="human" speed="12.71" pos="17.94" lane="e0_0" slope="0.00"/>
    </timestep>
    <timestep time="25.00">
        <vehicle id="background.0" x="325.22" y="-1.60" angle="90.00" type="human" speed="13.87" pos="25.22" lane="e1_0" slope="0.00"/>
        <vehicle id="background.1" x="114.32" y="-1.60" angle="90.00" type="human" speed="13.67" pos="114.32" lane="e0_0" slope="0.00"/>
        <vehicle id="background.2" x="93.09" y="-1.60" angle="90.00" type="human" speed="13.12" pos="93.09" lane="e0_0" slope="0.00"/>
        <vehicle id="background.3" x="24.33" y="-1.60" angle="90.00" type="human" speed="12.77" pos="24.33" lane="e0_0" slope="0.00"/>
    </timestep>
    <timestep time="25.50">
        <vehicle id="background.0" x="332.00" y="-1.60" angle="90.00" type="human" speed="13.56" pos="32.00" lane="e1_0" slope="0.00"/>
        <vehicle id="background.1" x="121.00" y="-1.60" angle="90.00" type="human" speed="13.37" pos="121.00" lane="e0_0" slope="0.00"/>
        <vehicle id="background.2" x="99.83" y="-1.60" angle="90.00" type="human" speed="13.48" pos="99.83" lane="e0_0" slope="0.00"/>
        <vehicle id="background.3" x="30.77" y="-1.60" angle="90.00" type="human" speed="12.88" pos="30.77" lane="e0_0" slope="0.00"/>
    </timestep>
    <timestep time="26.00">
        <vehicle id="background.0" x="338.87" y="-1.60" angle="90.00" type="human" speed="13.75" pos="38.87" lane="e1_0" slope="0.00"/>
        <vehicle id="background.1" x="127.77" y="-1.60" angle="90.00" type="human" speed="13.54" pos="127.77" lane="e0_0" slope="0.00"/>
        <vehicle id="background.2" x="106.47" y="-1.60" angle="90.00" type="human" speed="13.28" pos="106.47" lane="e0_0" slope="0.00"/>
        <vehicle id="background.3" x="37.12" y="-1.60" angle="90.00" type="human" speed="12.70" pos="37.12" lane="e0_0" slope="0.00"/>
        <vehicle id="background.4" x="5.10" y="-1.60" angle="90.00" type="human" speed="13.89" pos="5.10" lane="e0_0" slope="0.00"/>
    </timestep>
    <timestep time="26.50">
        <vehicle id="background.0" x="345.73" y="-1.60" angle="90.00" type="human" speed="13.70" pos="45.73" lane="e1_0" slope="0.00"/>
        <vehicle id="background.1" x="134.48" y="-1.60" angle="90.00" type="human" speed="13.42" pos="134.48" lane="e0_0" slope="0.00"/>
        <vehicle id="background.2" x="113.12" y="-1.60" angle="90.00" type="human" speed="13.29" pos="113.12" lane="e0_0" slope="0.00"/>
        <vehicle id="background.3" x="43.39" y="-1.60" angle="90.00" type="human" speed="12.55" pos="43.39" lane="e0_0" slope="0.00"/>
        <vehicle id="background.4" x="11.98" y="-1.60" angle="90.00" type="human" speed="13.77" pos="11.98" lane="e0_0" slope="0.00"/>
    </timestep>
    <timestep time="27.00">
        <vehicle id="background.1" x="141.31" y="-1.60" angle="90.00" type="human" speed="13.65" pos="141.31" lane="e0_0" slope="0.00"/>
        <vehicle id="background.2" x="119.85" y="-1.60" angle="90.00" type="human" speed="13.47" pos="119.85" lane="e0_0" slope="0.00"/>
        <vehicle id="background.3" x="49.74" y="-1.60" angle="90.00" type="human" speed="12.69" pos="49.74" lane="e0_0" slope="0.00"/>
        <vehicle id="background.4" x="18.87" y="-1.60" angle="90.00" type="human" speed="13.77" pos="18.87" lane="e0_0" slope="0.00"/>
    </timestep>
    <timestep time="27.50">
        <vehicle id="background.1" x="148.00" y="-1.60" angle="90.00" type="human" speed="13.39" pos="148.00" lane="e0_0" slope="0.00"/>
        <vehicle id="background.2" x="126.47" y="-1.60" angle="90.00" type="human" speed="13.23" pos="126.47" lane="e0_0" slope="0.00"/>
        <vehicle id="background.3" x="56.00" y="-1.60" angle="90.00" type="human" speed="12.52" pos="56.00" lane="e0_0" slope="0.00"/>
        <vehicle id="background.4" x="25.57" y="-1.60" angle="90.00" type="human" speed="13.41" pos="25.57" lane="e0_0" slope="0.00"/>
    </timestep>
    <timestep time="28.00">
        <vehicle id="background.1" x="154.87" y="-1.60" angle="90.00" type="human" speed="13.74" pos="154.87" lane="e0_0" slope="0.00"/>
        <vehicle id="background.2" x="133.07" y="-1.60" angle="90.00" type="human" speed="13.21" pos="133.07" lane="e0_0" slope="0.00"/>
        <vehicle id="background.3" x="62.36" y="-1.60" angle="90.00" type="human" speed="12.72" pos="62.36" lane="e0_0" slope="0.00"/>
        <vehicle id="background.4" x="32.33" y="-1.60" angle="90.00" type="human" speed="13.51" pos="32.33" lane="e0_0" slope="0.00"/>
    </timestep>
    <timestep time="28.50">
        <vehicle id="background.1" x="161.66" y="-1.60" angle="90.00" type="human" speed="13.59" pos="161.66" lane="e0_0" slope="0.00"/>
        <vehicle id="background.2" x="139.99" y="-1.60" angle="90.00" type="human" speed="13.83" pos="139.99" lane="e0_0" slope="0.00"/>
        <vehicle id="background.3" x="68.77" y="-1.60" angle="90.00" type="human" speed="12.82" pos="68.77" lane="e0_0" slope="0.00"/>
        <vehicle id="background.4" x="39.04" y="-1.60" angle="90.00" type="human" speed="13.44" pos="39.04" lane="e0_0" slope="0.00"/>
    </timestep>
    <timestep time="29.00">
        <vehicle id="background.1" x="168.38" y="-1.60" angle="90.00" type="human" speed="13.43" pos="168.38" lane="e0_0" slope="0.00"/>
        <vehicle id="background.2" x="146.72" y="-1.60" angle="90.00" type="human" speed="13.47" pos="146.72" lane="e0_0" slope="0.00"/>
        <vehicle id="background.3" x="75.09" y="-1.60" angle="90.00" type="human" speed="12.65" pos="75.09" lane="e0_0" slope="0.00"/>
        <vehicle id="background.4" x="45.96" y="-1.60" angle="90.00" type="human" speed="13.84" pos="45.96" lane="e0_0" slope="0.00"/>
    </timestep>
    <timestep time="29.50">
        <vehicle id="background.1" x="175.20" y="-1.60" angle="90.00" type="human" speed="13.65" pos="175.20" lane="e0_0" slope="0.00"/>
        <vehicle id="background.2" x="153.33" y="-1.60" angle="90.00" type="human" speed="13.21" pos="153.33" lane="e0_0" slope="0.00"/>
        <vehicle id="background.3" x="81.55" y="-1.60" angle="90.00" type="human" speed="12.91" pos="81.55" lane="e0_0" slope="0.00"/>
        <vehicle id="background.4" x="52.78" y="-1.60" angle="90.00" type="human" speed="13.62" pos="52.78" lane="e0_0" slope="0.00"/>
    </timestep>
    <timestep time="30.00">
        <vehicle id="background.1" x="181.96" y="-1.60" angle="90.00" type="human" speed="13.50" pos="181.96" lane="e0_0" slope="0.00"/>
        <vehicle id="background.2" x="160.07" y="-1.60" angle="90.00" type="human" speed="13.48" pos="160.07" lane="e0_0" slope="0.00"/>
        <vehicle id="background.3" x="88.04" y="-1.60" angle="90.00" type="human" speed="12.97" pos="88.04" lane="e0_0" slope="0.00"/>
        <vehicle id="background.4" x="59.64" y="-1.60" angle="90.00" type="human" speed="13.72" pos="59.64" lane="e0_0" slope="0.00"/>
    </timestep>
    <timestep time="30.50">
        <vehicle id="background.1" x="188.73" y="-1.60" angle="90.00" type="human" speed="13.55" pos="188.73" lane="e0_0" slope="0.00"/>
        <vehicle id="background.2" x="166.69" y="-1.60" angle="90.00" type="human" speed="13.24" pos="166.69" lane="e0_0" slope="0.00"/>
        <vehicle id="background.3" x="94.48" y="-1.60" angle="90.00" type="human" speed="12.87" pos="94.48" lane="e0_0" slope="0.00"/>
        <vehicle id="background.4" x="66.52" y="-1.60" angle="90.00" type="human" speed="13.76" pos="66.52" lane="e0_0" slope="0.00"/>
    </timestep>
    <timestep time="31.00">
        <vehicle id="background.1" x="195.54" y="-1.60" angle="90.00" type="human" speed="13.62" pos="195.54" lane="e0_0" slope="0.00"/>
        <vehicle id="background.2" x="173.53" y="-1.60" angle="90.00" type="human" speed="13.67" pos="173.53" lane="e0_0" slope="0.00"/>
        <vehicle id="background.3" x="100.79" y="-1.60" angle="90.00" type="human" speed="12.63" pos="100.79" lane="e0_0" slope="0.00"/>
        <vehicle id="background.4" x="73.44" y="-1.60" angle="90.00" type="human" speed="13.84" pos="73.44" lane="e0_0" slope="0.00"/>
    </timestep>
    <timestep time="31.50">
        <vehicle id="background.1" x="202.42" y="-1.60" angle="90.00" type="human" speed="13.75" pos="202.42" lane="e0_0" slope="0.00"/>
        <vehicle id="background.2" x="180.30" y="-1.60" angle="90.00" type="human" speed="13.53" pos="180.30" lane="e0_0" slope="0.00"/>
        <vehicle id="background.3" x="107.15" y="-1.60" angle="90.00" type="human" speed="12.71" pos="107.15" lane="e0_0" slope="0.00"/>
        <vehicle id="background.4" x="80.26" y="-1.60" angle="90.00" type="human" speed="13.63" pos="80.26" lane="e0_0" slope="0.00"/>
    </timestep>
    <timestep time="32.00">
        <vehicle id="background.1" x="209.27" y="-1.60" angle="90.00" type="human" speed="13.71" pos="209.27" lane="e0_0" slope="0.00"/>
        <vehicle id="background.2" x="187.12" y="-1.60" angle="90.00" type="human" speed="13.66" pos="187.12" lane="e0_0" slope="0.00"/>
        <vehicle id="background.3" x="113.60" y="-1.60" angle="90.00" type="human" speed="12.90" pos="113.60" lane="e0_0" slope="0.00"/>
        <vehicle id="background.4" x="86.99" y="-1.60" angle="90.00" type="human" speed="13.47" pos="86.99" lane="e0_0" slope="0.00"/>
    </timestep>
    <timestep time="32.50">
        <vehicle id="background.1" x="216.15" y="-1.60" angle="90.00" type="human" speed="13.76" pos="216.15" lane="e0_0" slope="0.00"/>
        <vehicle id="background.2" x="193.96" y="-1.60" angle="90.00" type="human" speed="13.67" pos="193.96" lane="e0_0" slope="0.00"/>
        <vehicle id="background.3" x="120.07" y="-1.60" angle="90.00" type="human" speed="12.94" pos="120.07" lane="e0_0" slope="0.00"/>
        <vehicle id="background.4" x="93.73" y="-1.60" angle="90.00" type="human" speed="13.47" pos="93.73" lane="e0_0" slope="0.00"/>
        <vehicle id="background.5" x="5.10" y="-1.60" angle="90.00" type="human" speed="12.70" pos="5.10" lane="e0_0" slope="0.00"/>
    </timestep>
    <timestep time="33.00">
        <vehicle id="background.1" x="222.90" y="-1.60" angle="90.00" type="human" speed="13.51" pos="222.90" lane="e0_0" slope="0.00"/>
        <vehicle id="background.2" x="200.89" y="-1.60" angle="90.00" type="human" speed="13.86" pos="200.89" lane="e0_0" slope="0.00"/>
        <vehicle id="background.3" x="126.40" y="-1.60" angle="90.00" type="human" speed="12.66" pos="126.40" lane="e0_0" slope="0.00"/>
        <vehicle id="background.4" x="100.46" y="-1.60" angle="90.00" type="human" speed="13.47" pos="100.46" lane="e0_0" slope="0.00"/>
        <vehicle id="background.5" x="11.40" y="-1.60" angle="90.00" type="human" speed="12.60" pos="11.40" lane="e0_0" slope="0.00"/>
    </timestep>
    <timestep time="33.50">
        <vehicle id="background.1" x="229.73" y="-1.60" angle="90.00" type="human" speed="13.66" pos="229.73" lane="e0_0" slope="0.00"/>
        <vehicle id="background.2" x="207.58" y="-1.60" angle="90.00" type="human" speed="13.38" pos="207.58" lane="e0_0" slope="0.00"/>
        <vehicle id="background.3" x="132.79" y="-1.60" angle="90.00" type="human" speed="12.77" pos="132.79" lane="e0_0" slope="0.00"/>
        <vehicle id="background.4" x="107.31" y="-1.60" angle="90.00" type="human" speed="13.70" pos="107.31" lane="e0_0" slope="0.00"/>
        <vehicle id="background.5" x="17.68" y="-1.60" angle="90.00" type="human" speed="12.56" pos="17.68" lane="e0_0" slope="0.00"/>
    </timestep>
    <timestep time="34.00">
        <vehicle id="background.1" x="236.59" y="-1.60" angle="90.00" type="human" speed="13.72" pos="236.59" lane="e0_0" slope="0.00"/>
        <vehicle id="background.2" x="214.36" y="-1.60" angle="90.00" type="human" speed="13.56" pos="214.36" lane="e0_0" slope="0.00"/>
        <vehicle id="background.3" x="139.10" y="-1.60" angle="90.00" type="human" speed="12.63" pos="139.10" lane="e0_0" slope="0.00"/>
        <vehicle id="background.4" x="114.24" y="-1.60" angle="90.00" type="human" speed="13.85" pos="114.24" lane="e0_0" slope="0.00"/>
        <vehicle id="background.5" x="23.79" y="-1.60" angle="90.00" type="human" speed="12.20" pos="23.79" lane="e0_0" slope="0.00"/>
    </timestep>
    <timestep time="34.50">
        <vehicle id="background.1" x="243.47" y="-1.60" angle="90.00" type="human" speed="13.77" pos="243.47" lane="e0_0" slope="0.00"/>
        <vehicle id="background.2" x="221.09" y="-1.60" angle="90.00" type="human" speed="13.47" pos="221.09" lane="e0_0" slope="0.00"/>
        <vehicle id="background.3" x="145.52" y="-1.60" angle="90.00" type="human" speed="12.84" pos="145.52" lane="e0_0" slope="0.00"/>
        <vehicle id="background.4" x="120.94" y="-1.60" angle="90.00" type="human" speed="13.41" pos="120.94" lane="e0_0" slope="0.00"/>
        <vehicle id="background.5" x="30.12" y="-1.60" angle="90.00" type="human" speed="12.67" pos="30.12" lane="e0_0" slope="0.00"/>
    </timestep>
    <timestep time="35.00">
        <vehicle id="background.1" x="250.14" y="-1.60" angle="90.00" type="human" speed="13.32" pos="250.14" lane="e0_0" slope="0.00"/>
        <vehicle id="background.2" x="227.80" y="-1.60" angle="90.00" type="human" speed="13.41" pos="227.80" lane="e0_0" slope="0.00"/>
        <vehicle id="background.3" x="151.88" y="-1.60" angle="90.00" type="human" speed="12.72" pos="151.88" lane="e0_0" slope="0.00"/>
        <vehicle id="background.4" x="127.88" y="-1.60" angle="90.00" type="human" speed="13.88" pos="127.88" lane="e0_0" slope="0.00"/>
        <vehicle id="background.5" x="36.44" y="-1.60" angle="90.00" type="human" speed="12.63" pos="36.44" lane="e0_0" slope="0.00"/>
    </timestep>
    <timestep time="35.50">
        <vehicle id="background.1" x="256.89" y="-1.60" angle="90.00" type="human" speed="13.52" pos="256.89" lane="e0_0" slope="0.00"/>
        <vehicle id="background.2" x="234.42" y="-1.60" angle="90.00" type="human" speed="13.23" pos="234.42" lane="e0_0" slope="0.00"/>
        <vehicle id="background.3" x="158.21" y="-1.60" angle="90.00" type="human" speed="12.65" pos="158.21" lane="e0_0" slope="0.00"/>
        <vehicle id="background.4" x="134.55" y="-1.60" angle="90.00" type="human" speed="13.34" pos="134.55" lane="e0_0" slope="0.00"/>
        <vehicle id="background.5" x="42.55" y="-1.60" angle="90.00" type="human" speed="12.22" pos="42.55" lane="e0_0" slope="0.00"/>
    </timestep>
    <timestep time="36.00">
        <vehicle id="background.1" x="263.75" y="-1.60" angle="90.00" type="human" speed="13.70" pos="263.75" lane="e0_0" slope="0.00"/>
        <vehicle id="background.2" x="241.18" y="-1.60" angle="90.00" type="human" speed="13.53" pos="241.18" lane="e0_0" slope="0.00"/>
        <vehicle id="background.3" x="164.46" y="-1.60" angle="90.00" type="human" speed="12.50" pos="164.46" lane="e0_0" slope="0.00"/>
        <vehicle id="background.4" x="141.29" y="-1.60" angle="90.00" type="human" speed="13.47" pos="141.29" lane="e0_0" slope="0.00"/>
        <vehicle id="background.5" x="48.88" y="-1.60" angle="90.00" type="human" speed="12.66" pos="48.88" lane="e0_0" slope="0.00"/>
    </timestep>
    <timestep time="36.50">
        <vehicle id="background.1" x="270.63" y="-1.60" angle="90.00" type="human" speed="13.77" pos="270.63" lane="e0_0" slope="0.00"/>
        <vehicle id="background.2" x="248.10" y="-1.60" angle="90.00" type="human" speed="13.83" pos="248.10" lane="e0_0" slope="0.00"/>
        <vehicle id="background.3" x="170.83" y="-1.60" angle="90.00" type="human" speed="12.75" pos="170.83" lane="e0_0" slope="0.00"/>
        <vehicle id="background.4" x="147.79" y="-1.60" angle="90.00" type="human" speed="13.00" pos="147.79" lane="e0_0" slope="0.00"/>
        <vehicle id="background.5" x="55.15" y="-1.60" angle="90.00" type="human" speed="12.54" pos="55.15" lane="e0_0" slope="0.00"/>
    </timestep>
    <timestep time="37.00">
        <vehicle id="background.1" x="277.32" y="-1.60" angle="90.00" type="human" speed="13.38" pos="277.32" lane="e0_0" slope="0.00"/>