<?xml version="1.0" encoding="UTF-8"?>

<!-- generated on 2026-05-14 17:04:20 by Eclipse SUMO sumo Version 1.24.0
<sumoConfiguration xmlns:xsi="http://www.w3.org/2001/XMLSchema-instance" xsi:noNamespaceSchemaLocation="http://sumo.dlr.de/xsd/sumoConfiguration.xsd">

    <input>
        <net-file value="scenarios/simple_arterial/simple_arterial.net.xml"/>
        <route-files value="scenarios/simple_arterial/simple_arterial.rou.xml"/>
        <additional-files value="scenarios/simple_arterial/simple_arterial.tls.xml"/>
    </input>

    <output>
        <fcd-output value="runs/fcd_expert_default/episode_00028_seed_70.fcd.xml"/>
    </output>

    <time>
        <begin value="0"/>
        <end value="900"/>
        <step-length value="0.5"/>
    </time>

    <report>
        <no-warnings value="true"/>
    </report>

    <traci_server>
        <remote-port value="24542"/>
    </traci_server>

    <random_number>
        <seed value="70"/>
    </random_number>

</sumoConfiguration>
-->

<fcd-export xmlns:xsi="http://www.w3.org/2001/XMLSchema-instance" xsi:noNamespaceSchemaLocation="http://sumo.dlr.de/xsd/fcd_file.xsd">
    <timestep time="0.00"/>
    <timestep time="0.50"/>
    <timestep time="1.00"/>
    <timestep time="1.50"/>
    <timestep time="2.00"/>
    <timestep time="2.50"/>
    <timestep time="3.00"/>
    <timestep time="3.50"/>
    <timestep time="4.00"/>
    <timestep time="4.50"/>
    <timestep time="5.00"/>
    <timestep time="5.50"/>
    <timestep time="6.00"/>
    <timestep time="6.50"/>
    <timestep time="7.00"/>
    <timestep time="7.50"/>
    <timestep time="8.00"/>
    <timestep time="8.50"/>
    <timestep time="9.00"/>
    <timestep time="9.50"/>
    <timestep time="10.00"/>
    <timestep time="10.50"/>
    <timestep time="11.00"/>
    <timestep time="11.50"/>
    <timestep time="12.00"/>
    <timestep time="12.50"/>
    <timestep time="13.00"/>
    <timestep time="13.50"/>
    <timestep time="14.00"/>
    <timestep time="14.50"/>
    <timestep time="15.00"/>
    <timestep time="15.50"/>
    <timestep time="16.00"/>
    <timestep time="16.50"/>
    <timestep time="17.00"/>
    <timestep time="17.50"/>
    <timestep time="18.00"/>
    <timestep time="18.50"/>
    <timestep time="19.00"/>
    <timestep time="19.50"/>
    <timestep time="20.00"/>
    <timestep time="20.50"/>
    <timestep time="21.00"/>
    <timestep time="21.50"/>
    <timestep time="22.00"/>
    <timestep time="22.50"/>
    <timestep time="23.00"/>
    <timestep time="23.50"/>
    <timestep time="24.00"/>
    <timestep time="24.50"/>
    <timestep time="25.00">
        <vehicle id="background.0" x="5.10" y="-1.60" angle="90.00" type="human" speed="13.89" pos="5.10" lane="e0_0" slope="0.00"/>
    </timestep>
    <timestep time="25.50">
        <vehicle id="background.0" x="12.00" y="-1.60" angle="90.00" type="human" speed="13.80" pos="12.00" lane="e0_0" slope="0.00"/>
    </timestep>
    <timestep time="26.00">
        <vehicle id="background.0" x="18.75" y="-1.60" angle="90.00" type="human" speed="13.51" pos="18.75" lane="e0_0" slope="0.00"/>
    </timestep>
    <timestep time="26.50">
        <vehicle id="background.0" x="25.60" y="-1.60" angle="90.00" type="human" speed="13.70" pos="25.60" lane="e0_0" slope="0.00"/>
    </timestep>
    <timestep time="27.00">
        <vehicle id="background.0" x="32.52" y="-1.60" angle="90.00" type="human" speed="13.84" pos="32.52" lane="e0_0" slope="0.00"/>
    </timestep>
    <timestep time="27.50">
        <vehicle id="background.0" x="39.26" y="-1.60" angle="90.00" type="human" speed="13.47" pos="39.26" lane="e0_0" slope="0.00"/>
    </timestep>
    <timestep time="28.00">
        <vehicle id="background.0" x="46.03" y="-1.60" angle="90.00" type="human" speed="13.53" pos="46.03" lane="e0_0" slope="0.00"/>
    </timestep>
    <timestep time="28.50">
        <vehicle id="background.0" x="52.92" y="-1.60" angle="90.00" type="human" speed="13.79" pos="52.92" lane="e0_0" slope="0.00"/>
    </timestep>
    <timestep time="29.00">
        <vehicle id="background.0" x="59.82" y="-1.60" angle="90.00" type="human" speed="13.81" pos="59.82" lane="e0_0" slope="0.00"/>
    </timestep>
    <timestep time="29.50">
        <vehicle id="background.0" x="66.54" y="-1.60" angle="90.00" type="human" speed="13.43" pos="66.54" lane="e0_0" slope="0.00"/>
    </timestep>
    <timestep time="30.00">
        <vehicle id="background.0" x="73.29" y="-1.60" angle="90.00" type="human" speed="13.51" pos="73.29" lane="e0_0" slope="0.00"/>
    </timestep>
    <timestep time="30.50">
        <vehicle id="background.0" x="80.04" y="-1.60" angle="90.00" type="human" speed="13.50" pos="80.04" lane="e0_0" slope="0.00"/>
        <vehicle id="background.1" x="5.10" y="-1.60" angle="90.00" type="human" speed="13.89" pos="5.10" lane="e0_0" slope="0.00"/>
    </timestep>
    <timestep time="31.00">
        <vehicle id="background.0" x="86.94" y="-1.60" angle="90.00" type="human" speed="13.79" pos="86.94" lane="e0_0" slope="0.00"/>
        <vehicle id="background.1" x="11.86" y="-1.60" angle="90.00" type="human" speed="13.53" pos="11.86" lane="e0_0" slope="0.00"/>
    </timestep>
    <timestep time="31.50">
        <vehicle id="background.0" x="93.81" y="-1.60" angle="90.00" type="human" speed="13.74" pos="93.81" lane="e0_0" slope="0.00"/>
        <vehicle id="background.1" x="18.56" y="-1.60" angle="90.00" type="human" speed="13.39" pos="18.56" lane="e0_0" slope="0.00"/>
    </timestep>
    <timestep time="32.00">
        <vehicle id="background.0" x="100.66" y="-1.60" angle="90.00" type="human" speed="13.70" pos="100.66" lane="e0_0" slope="0.00"/>
        <vehicle id="background.1" x="25.29" y="-1.60" angle="90.00" type="human" speed="13.47" pos="25.29" lane="e0_0" slope="0.00"/>
    </timestep>
    <timestep time="32.50">
        <vehicle id="background.0" x="107.53" y="-1.60" angle="90.00" type="human" speed="13.74" pos="107.53" lane="e0_0" slope="0.00"/>
        <vehicle id="background.1" x="32.18" y="-1.60" angle="90.00" type="human" speed="13.77" pos="32.18" lane="e0_0" slope="0.00"/>
    </timestep>
    <timestep time="33.00">
        <vehicle id="background.0" x="114.25" y="-1.60" angle="90.00" type="human" speed="13.43" pos="114.25" lane="e0_0" slope="0.00"/>
        <vehicle id="background.1" x="39.05" y="-1.60" angle="90.00" type="human" speed="13.73" pos="39.05" lane="e0_0" slope="0.00"/>
    </timestep>
    <timestep time="33.50">
        <vehicle id="background.0" x="121.07" y="-1.60" angle="90.00" type="human" speed="13.63" pos="121.07" lane="e0_0" slope="0.00"/>
        <vehicle id="background.1" x="45.81" y="-1.60" angle="90.00" type="human" speed="13.53" pos="45.81" lane="e0_0" slope="0.00"/>
    </timestep>
    <timestep time="34.00">
        <vehicle id="background.0" x="128.00" y="-1.60" angle="90.00" type="human" speed="13.86" pos="128.00" lane="e0_0" slope="0.00"/>
        <vehicle id="background.1" x="52.73" y="-1.60" angle="90.00" type="human" speed="13.84" pos="52.73" lane="e0_0" slope="0.00"/>
    </timestep>
    <timestep time="34.50">
        <vehicle id="background.0" x="134.91" y="-1.60" angle="90.00" type="human" speed="13.82" pos="134.91" lane="e0_0" slope="0.00"/>
        <vehicle id="background.1" x="59.53" y="-1.60" angle="90.00" type="human" speed="13.59" pos="59.53" lane="e0_0" slope="0.00"/>
        <vehicle id="ego" x="5.10" y="-1.60" angle="90.00" type="ego_type" speed="0.00" pos="5.10" lane="e0_0" slope="0.00"/>
    </timestep>
    <timestep time="35.00">
        <vehicle id="background.0" x="141.62" y="-1.60" angle="90.00" type="human" speed="13.42" pos="141.62" lane="e0_0" slope="0.00"/>
        <vehicle id="background.1" x="66.44" y="-1.60" angle="90.00" type="human" speed="13.82" pos="66.44" lane="e0_0" slope="0.00"/>
        <vehicle id="ego" x="5.60" y="-1.60" angle="90.00" type="ego_type" speed="1.00" pos="5.60" lane="e0_0" slope="0.00"/>
    </timestep>
    <timestep time="35.50">
        <vehicle id="background.0" x="148.34" y="-1.60" angle="90.00" type="human" speed="13.44" pos="148.34" lane="e0_0" slope="0.00"/>
        <vehicle id="background.1" x="73.36" y="-1.60" angle="90.00" type="human" speed="13.85" pos="73.36" lane="e0_0" slope="0.00"/>
        <vehicle id="ego" x="6.60" y="-1.60" angle="90.00" type="ego_type" speed="2.00" pos="6.60" lane="e0_0" slope="0.00"/>
    </timestep>
    <timestep time="36.00">
        <vehicle id="background.0" x="155.19" y="-1.60" angle="90.00" type="human" speed="13.71" pos="155.19" lane="e0_0" slope="0.00"/>
        <vehicle id="background.1" x="80.07" y="-1.60" angle="90.00" type="human" speed="13.41" pos="80.07" lane="e0_0" slope="0.00"/>
        <vehicle id="ego" x="8.10" y="-1.60" angle="90.00" type="ego_type" speed="3.00" pos="8.10" lane="e0_0" slope="0.00"/>
    </timestep>
    <timestep time="36.50">
        <vehicle id="background.0" x="161.94" y="-1.60" angle="90.00" type="human" speed="13.50" pos="161.94" lane="e0_0" slope="0.00"/>
        <vehicle id="background.1" x="86.84" y="-1.60" angle="90.00" type="human" speed="13.55" pos="86.84" lane="e0_0" slope="0.00"/>
        <vehicle id="ego" x="10.10" y="-1.60" angle="90.00" type="ego_type" speed="4.00" pos="10.10" lane="e0_0" slope="0.00"/>
    </timestep>
    <timestep time="37.00">
        <vehicle id="background.0" x="168.80" y="-1.60" angle="90.00" type="human" speed="13.73" pos="168.80" lane="e0_0" slope="0.00"/>
        <vehicle id="background.1" x="93.73" y="-1.60" angle="90.00" type="human" speed="13.76" pos="93.73" lane="e0_0" slope="0.00"/>
        <vehicle id="ego" x="12.60" y="-1.60" angle="90.00" type="ego_type" speed="5.00" pos="12.60" lane="e0_0" slope="0.00"/>
    </timestep>
    <timestep time="37.50">
        <vehicle id="background.0" x="175.66" y="-1.60" angle="90.00" type="human" speed="13.70" pos="175.66" lane="e0_0" slope="0.00"/>
        <vehicle id="background.1" x="100.59" y="-1.60" angle="90.00" type="human" speed="13.72" pos="100.59" lane="e0_0" slope="0.00"/>
        <vehicle id="ego" x="15.60" y="-1.60" angle="90.00" type="ego_type" speed="6.00" pos="15.60" lane="e0_0" slope="0.00"/>
    </timestep>
    <timestep time="38.00">
        <vehicle id="background.0" x="182.35" y="-1.60" angle="90.00" type="human" speed="13.39" pos="182.35" lane="e0_0" slope="0.00"/>
        <vehicle id="background.1" x="107.46" y="-1.60" angle="90.00" type="human" speed="13.75" pos="107.46" lane="e0_0" slope="0.00"/>
        <vehicle id="ego" x="19.10" y="-1.60" angle="90.00" type="ego_type" speed="7.00" pos="19.10" lane="e0_0" slope="0.00"/>
    </timestep>
    <timestep time="38.50">
        <vehicle id="background.0" x="189.08" y="-1.60" angle="90.00" type="human" speed="13.46" pos="189.08" lane="e0_0" slope="0.00"/>
        <vehicle id="background.1" x="114.19" y="-1.60" angle="90.00" type="human" speed="13.47" pos="114.19" lane="e0_0" slope="0.00"/>
        <vehicle id="ego" x="23.10" y="-1.60" angle="90.00" type="ego_type" speed="8.00" pos="23.10" lane="e0_0" slope="0.00"/>
    </timestep>
    <timestep time="39.00">
        <vehicle id="background.0" x="196.01" y="-1.60" angle="90.00" type="human" speed="13.85" pos="196.01" lane="e0_0" slope="0.00"/>
        <vehicle id="background.1" x="121.13" y="-1.60" angle="90.00" type="human" speed="13.87" pos="121.13" lane="e0_0" slope="0.00"/>
        <vehicle id="ego" x="27.60" y="-1.60" angle="90.00" type="ego_type" speed="9.00" pos="27.60" lane="e0_0" slope="0.00"/>
    </timestep>
    <timestep time="39.50">
        <vehicle id="background.0" x="202.87" y="-1.60" angle="90.00" type="human" speed="13.73" pos="202.87" lane="e0_0" slope="0.00"/>
        <vehicle id="background.1" x="127.86" y="-1.60" angle="90.00" type="human" speed="13.46" pos="127.86" lane="e0_0" slope="0.00"/>
        <vehicle id="ego" x="32.60" y="-1.60" angle="90.00" type="ego_type" speed="10.00" pos="32.60" lane="e0_0" slope="0.00"/>
    </timestep>
    <timestep time="40.00">
        <vehicle id="background.0" x="209.63" y="-1.60" angle="90.00" type="human" speed="13.52" pos="209.63" lane="e0_0" slope="0.00"/>
        <vehicle id="background.1" x="134.65" y="-1.60" angle="90.00" type="human" speed="13.58" pos="134.65" lane="e0_0" slope="0.00"/>
        <vehicle id="ego" x="38.10" y="-1.60" angle="90.00" type="ego_type" speed="11.00" pos="38.10" lane="e0_0" slope="0.00"/>
    </timestep>
    <timestep time="40.50">
        <vehicle id="background.0" x="216.56" y="-1.60" angle="90.00" type="human" speed="13.85" pos="216.56" lane="e0_0" slope="0.00"/>
        <vehicle id="background.1" x="141.35" y="-1.60" angle="90.00" type="human" speed="13.40" pos="141.35" lane="e0_0" slope="0.00"/>
        <vehicle id="ego" x="44.10" y="-1.60" angle="90.00" type="ego_type" speed="12.00" pos="44.10" lane="e0_0" slope="0.00"/>
    </timestep>
    <timestep time="41.00">
        <vehicle id="background.0" x="223.48" y="-1.60" angle="90.00" type="human" speed="13.84" pos="223.48" lane="e0_0" slope="0.00"/>
        <vehicle id="background.1" x="148.06" y="-1.60" angle="90.00" type="human" speed="13.43" pos="148.06" lane="e0_0" slope="0.00"/>
        <vehicle id="ego" x="50.60" y="-1.60" angle="90.00" type="ego_type" speed="13.00" pos="50.60" lane="e0_0" slope="0.00"/>
    </timestep>
    <timestep time="41.50">
        <vehicle id="background.0" x="230.36" y="-1.60" angle="90.00" type="human" speed="13.76" pos="230.36" lane="e0_0" slope="0.00"/>
        <vehicle id="background.1" x="154.93" y="-1.60" angle="90.00" type="human" speed="13.74" pos="154.93" lane="e0_0" slope="0.00"/>
        <vehicle id="ego" x="57.55" y="-1.60" angle="90.00" type="ego_type" speed="13.89" pos="57.55" lane="e0_0" slope="0.00"/>
    </timestep>
    <timestep time="42.00">
        <vehicle id="background.0" x="237.16" y="-1.60" angle="90.00" type="human" speed="13.60" pos="237.16" lane="e0_0" slope="0.00"/>
        <vehicle id="background.1" x="161.80" y="-1.60" angle="90.00" type="human" speed="13.74" pos="161.80" lane="e0_0" slope="0.00"/>
        <vehicle id="ego" x="64.49" y="-1.60" angle="90.00" type="ego_type" speed="13.89" pos="64.49" lane="e0_0" slope="0.00"/>
    </timestep>
    <timestep time="42.50">
        <vehicle id="background.0" x="244.05" y="-1.60" angle="90.00" type="human" speed="13.77" pos="244.05" lane="e0_0" slope="0.00"/>
        <vehicle id="background.1" x="168.59" y="-1.60" angle="90.00" type="human" speed="13.58" pos="168.59" lane="e0_0" slope="0.00"/>
        <vehicle id="ego" x="71.44" y="-1.60" angle="90.00" type="ego_type" speed="13.89" pos="71.44" lane="e0_0" slope="0.00"/>
    </timestep>
    <timestep time="43.00">
        <vehicle id="background.0" x="250.99" y="-1.60" angle="90.00" type="human" speed="13.89" pos="250.99" lane="e0_0" slope="0.00"/>
        <vehicle id="background.1" x="175.50" y="-1.60" angle="90.00" type="human" speed="13.82" pos="175.50" lane="e0_0" slope="0.00"/>
        <vehicle id="ego" x="78.38" y="-1.60" angle="90.00" type="ego_type" speed="13.89" pos="78.38" lane="e0_0" slope="0.00"/>
    </timestep>
    <timestep time="43.50">
        <vehicle id="background.0" x="257.82" y="-1.60" angle="90.00" type="human" speed="13.65" pos="257.82" lane="e0_0" slope="0.00"/>
        <vehicle id="background.1" x="182.23" y="-1.60" angle="90.00" type="human" speed="13.45" pos="182.23" lane="e0_0" slope="0.00"/>
        <vehicle id="ego" x="85.32" y="-1.60" angle="90.00" type="ego_type" speed="13.89" pos="85.32" lane="e0_0" slope="0.00"/>
    </timestep>
    <timestep time="44.00">
        <vehicle id="background.0" x="264.66" y="-1.60" angle="90.00" type="human" speed="13.70" pos="264.66" lane="e0_0" slope="0.00"/>
        <vehicle id="background.1" x="188.98" y="-1.60" angle="90.00" type="human" speed="13.51" pos="188.98" lane="e0_0" slope="0.00"/>
        <vehicle id="ego" x="92.27" y="-1.60" angle="90.00" type="ego_type" speed="13.89" pos="92.27" lane="e0_0" slope="0.00"/>
    </timestep>
    <timestep time="44.50">
        <vehicle id="background.0" x="271.53" y="-1.60" angle="90.00" type="human" speed="13.74" pos="271.53" lane="e0_0" slope="0.00"/>
        <vehicle id="background.1" x="195.71" y="-1.60" angle="90.00" type="human" speed="13.46" pos="195.71" lane="e0_0" slope="0.00"/>
        <vehicle id="ego" x="99.21" y="-1.60" angle="90.00" type="ego_type" speed="13.89" pos="99.21" lane="e0_0" slope="0.00"/>
    </timestep>
    <timestep time="45.00">
        <vehicle id="background.0" x="278.29" y="-1.60" angle="90.00" type="human" speed="13.52" pos="278.29" lane="e0_0" slope="0.00"/>
        <vehicle id="background.1" x="202.42" y="-1.60" angle="90.00" type="human" speed="13.42" pos="202.42" lane="e0_0" slope="0.00"/>
        <vehicle id="ego" x="106.16" y="-1.60" angle="90.00" type="ego_type" speed="13.89" pos="106.16" lane="e0_0" slope="0.00"/>
    </timestep>
    <timestep time="45.50">
        <vehicle id="background.0" x="284.42" y="-1.60" angle="90.00" type="human" speed="12.26" pos="284.42" lane="e0_0" slope="0.00"/>
        <vehicle id="background.1" x="209.25" y="-1.60" angle="90.00" type="human" speed="13.67" pos="209.25" lane="e0_0" slope="0.00"/>
        <vehicle id="ego" x="113.10" y="-1.60" angle="90.00" type="ego_type" speed="13.89" pos="113.10" lane="e0_0" slope="0.00"/>
    </timestep>
    <timestep time="46.00">
        <vehicle id="background.0" x="289.55" y="-1.60" angle="90.00" type="human" speed="10.26" pos="289.55" lane="e0_0" slope="0.00"/>
        <vehicle id="background.1" x="216.06" y="-1.60" angle="90.00" type="human" speed="13.61" pos="216.06" lane="e0_0" slope="0.00"/>
        <vehicle id="ego" x="120.05" y="-1.60" angle="90.00" type="ego_type" speed="13.89" pos="120.05" lane="e0_0" slope="0.00"/>
    </timestep>
    <timestep time="46.50">
        <vehicle id="background.0" x="293.56" y="-1.60" angle="90.00" type="human" speed="8.01" pos="293.56" lane="e0_0" slope="0.00"/>
        <vehicle id="background.1" x="222.96" y="-1.60" angle="90.00" type="human" speed="13.81" pos="222.96" lane="e0_0" slope="0.00"/>
        <vehicle id="ego" x="126.99" y="-1.60" angle="90.00" type="ego_type" speed="13.89" pos="126.99" lane="e0_0" slope="0.00"/>
    </timestep>
    <timestep time="47.00">
        <vehicle id="background.0" x="296.46" y="-1.60" angle="90.00" type="human" speed="5.81" pos="296.46" lane="e0_0" slope="0.00"/>
        <vehicle id="background.1" x="229.73" y="-1.60" angle="90.00" type="human" speed="13.53" pos="229.73" lane="e0_0" slope="0.00"/>
        <vehicle id="ego" x="133.94" y="-1.60" angle="90.00" type="ego_type" speed="13.89" pos="133.94" lane="e0_0" slope="0.00"/>
    </timestep>
    <timestep time="47.50">
        <vehicle id="background.0" x="298.24" y="-1.60" angle="90.00" type="human" speed="3.56" pos="298.24" lane="e0_0" slope="0.00"/>
        <vehicle id="background.1" x="236.65" y="-1.60" angle="90.00" type="human" speed="13.84" pos="236.65" lane="e0_0" slope="0.00"/>
        <vehicle id="ego" x="140.88" y="-1.60" angle="90.00" type="ego_type" speed="13.89" pos="140.88" lane="e0_0" slope="0.00"/>
    </timestep>
    <timestep time="48.00">
        <vehicle id="background.0" x="298.97" y="-1.60" angle="90.00" type="human" speed="1.46" pos="298.97" lane="e0_0" slope="0.00"/>
        <vehicle id="background.1" x="243.59" y="-1.60" angle="90.00" type="human" speed="13.88" pos="243.59" lane="e0_0" slope="0.00"/>
        <vehicle id="ego" x="147.83" y="-1.60" angle="90.00" type="ego_type" speed="13.89" pos="147.83" lane="e0_0" slope="0.00"/>
    </timestep>
    <timestep time="48.50">
        <vehicle id="background.0" x="298.99" y="-1.60" angle="90.00" type="human" speed="0.04" pos="298.99" lane="e0_0" slope="0.00"/>
        <vehicle id="background.1" x="250.52" y="-1.60" angle="90.00" type="human" speed="13.86" pos="250.52" lane="e0_0" slope="0.00"/>
        <vehicle id="background.2" x="5.10" y="-1.60" angle="90.00" type="human" speed="13.31" pos="5.10" lane="e0_0" slope="0.00"/>
        <vehicle id="ego" x="154.77" y="-1.60" angle="90.00" type="ego_type" speed="13.89" pos="154.77" lane="e0_0" slope="0.00"/>
    </timestep>
    <timestep time="49.00">
        <vehicle id="background.0" x="299.00" y="-1.60" angle="90.00" type="human" speed="0.01" pos="299.00" lane="e0_0" slope="0.00"/>
        <vehicle id="background.1" x="257.44" y="-1.60" angle="90.00" type="human" speed="13.85" pos="257.44" lane="e0_0" slope="0.00"/>
        <vehicle id="background.2" x="11.62" y="-1.60" angle="90.00" type="human" speed="13.05" pos="11.62" lane="e0_0" slope="0.00"/>
        <vehicle id="ego" x="161.72" y="-1.60" angle="90.00" type="ego_type" speed="13.89" pos="161.72" lane="e0_0" slope="0.00"/>
    </timestep>
    <timestep time="49.50">
        <vehicle id="background.0" x="299.00" y="-1.60" angle="90.00" type="human" speed="0.00" pos="299.00" lane="e0_0" slope="0.00"/>
        <vehicle id="background.1" x="264.33" y="-1.60" angle="90.00" type="human" speed="13.76" pos="264.33" lane="e0_0" slope="0.00"/>
        <vehicle id="background.2" x="18.04" y="-1.60" angle="90.00" type="human" speed="12.83" pos="18.04" lane="e0_0" slope="0.00"/>
        <vehicle id="ego" x="168.66" y="-1.60" angle="90.00" type="ego_type" speed="13.89" pos="168.66" lane="e0_0" slope="0.00"/>
    </timestep>
    <timestep time="50.00">
        <vehicle id="background.0" x="299.00" y="-1.60" angle="90.00" type="human" speed="0.00" pos="299.00" lane="e0_0" slope="0.00"/>
        <vehicle id="background.1" x="270.55" y="-1.60" angle="90.00" type="human" speed="12.45" pos="270.55" lane="e0_0" slope="0.00"/>
        <vehicle id="background.2" x="24.54" y="-1.60" angle="90.00" type="human" speed="13.01" pos="24.54" lane="e0_0" slope="0.00"/>
        <vehicle id="ego" x="175.61" y="-1.60" angle="90.00" type="ego_type" speed="13.89" pos="175.61" lane="e0_0" slope="0.00"/>
    </timestep>
    <timestep time="50.50">
        <vehicle id="background.0" x="299.00" y="-1.60" angle="90.00" type="human" speed="0.00" pos="299.00" lane="e0_0" slope="0.00"/>
        <vehicle id="background.1" x="275.86" y="-1.60" angle="90.00" type="human" speed="10.62" pos="275.86" lane="e0_0" slope="0.00"/>
        <vehicle id="background.2" x="31.16" y="-1.60" angle="90.00" type="human" speed="13.24" pos="31.16" lane="e0_0" slope="0.00"/>
        <vehicle id="ego" x="182.55" y="-1.60" angle="90.00" type="ego_type" speed="13.89" pos="182.55" lane="e0_0" slope="0.00"/>
    </timestep>
    <timestep time="51.00">
        <vehicle id="background.0" x="299.00" y="-1.60" angle="90.00" type="human" speed="0.00" pos="299.00" lane="e0_0" slope="0.00"/>
        <vehicle id="background.1" x="280.23" y="-1.60" angle="90.00" type="human" speed="8.73" pos="280.23" lane="e0_0" slope="0.00"/>
        <vehicle id="background.2" x="37.58" y="-1.60" angle="90.00" type="human" speed="12.83" pos="37.58" lane="e0_0" slope="0.00"/>
        <vehicle id="ego" x="189.50" y="-1.60" angle="90.00" type="ego_type" speed="13.89" pos="189.50" lane="e0_0" slope="0.00"/>
    </timestep>
    <timestep time="51.50">
        <vehicle id="background.0" x="299.00" y="-1.60" angle="90.00" type="human" speed="0.00" pos="299.00" lane="e0_0" slope="0.00"/>
        <vehicle id="background.1" x="283.59" y="-1.60" angle="90.00" type="human" speed="6.73" pos="283.59" lane="e0_0" slope="0.00"/>
        <vehicle id="background.2" x="44.20" y="-1.60" angle="90.00" type="human" speed="13.25" pos="44.20" lane="e0_0" slope="0.00"/>
        <vehicle id="ego" x="196.44" y="-1.60" angle="90.00" type="ego_type" speed="13.89" pos="196.44" lane="e0_0" slope="0.00"/>
    </timestep>
    <timestep time="52.00">
        <vehicle id="background.0" x="299.00" y="-1.60" angle="90.00" type="human" speed="0.00" pos="299.00" lane="e0_0" slope="0.00"/>
        <vehicle id="background.1" x="286.32" y="-1.60" angle="90.00" type="human" speed="5.46" pos="286.32" lane="e0_0" slope="0.00"/>
        <vehicle id="background.2" x="50.83" y="-1.60" angle="90.00" type="human" speed="13.26" pos="50.83" lane="e0_0" slope="0.00"/>
        <vehicle id="ego" x="203.39" y="-1.60" angle="90.00" type="ego_type" speed="13.89" pos="203.39" lane="e0_0" slope="0.00"/>
    </timestep>
    <timestep time="52.50">
        <vehicle id="background.0" x="299.00" y="-1.60" angle="90.00" type="human" speed="0.00" pos="299.00" lane="e0_0" slope="0.00"/>
        <vehicle id="background.1" x="288.20" y="-1.60" angle="90.00" type="human" speed="3.76" pos="288.20" lane="e0_0" slope="0.00"/>
        <vehicle id="background.2" x="57.35" y="-1.60" angle="90.00" type="human" speed="13.03" pos="57.35" lane="e0_0" slope="0.00"/>
        <vehicle id="ego" x="210.33" y="-1.60" angle="90.00" type="ego_type" speed="13.89" pos="210.33" lane="e0_0" slope="0.00"/>
    </timestep>
    <timestep time="53.00">
        <vehicle id="background.0" x="299.00" y="-1.60" angle="90.00" type="human" speed="0.00" pos="299.00" lane="e0_0" slope="0.00"/>
        <vehicle id="background.1" x="289.44" y="-1.60" angle="90.00" type="human" speed="2.48" pos="289.44" lane="e0_0" slope="0.00"/>
        <vehicle id="background.2" x="63.95" y="-1.60" angle="90.00" type="human" speed="13.20" pos="63.95" lane="e0_0" slope="0.00"/>
        <vehicle id="ego" x="217.28" y="-1.60" angle="90.00" type="ego_type" speed="13.89" pos="217.28" lane="e0_0" slope="0.00"/>
    </timestep>
    <timestep time="53.50">
        <vehicle id="background.0" x="299.00" y="-1.60" angle="90.00" type="human" speed="0.00" pos="299.00" lane="e0_0" slope="0.00"/>
        <vehicle id="background.1" x="290.25" y="-1.60" angle="90.00" type="human" speed="1.63" pos="290.25" lane="e0_0" slope="0.00"/>
        <vehicle id="background.2" x="70.44" y="-1.60" angle="90.00" type="human" speed="12.99" pos="70.44" lane="e0_0" slope="0.00"/>
        <vehicle id="ego" x="224.22" y="-1.60" angle="90.00" type="ego_type" speed="13.89" pos="224.22" lane="e0_0" slope="0.00"/>
    </timestep>
    <timestep time="54.00">
        <vehicle id="background.0" x="299.00" y="-1.60" angle="90.00" type="human" speed="0.00" pos="299.00" lane="e0_0" slope="0.00"/>
        <vehicle id="background.1" x="290.82" y="-1.60" angle="90.00" type="human" speed="1.13" pos="290.82" lane="e0_0" slope="0.00"/>
        <vehicle id="background.2" x="77.05" y="-1.60" angle="90.00" type="human" speed="13.22" pos="77.05" lane="e0_0" slope="0.00"/>
        <vehicle id="ego" x="231.17" y="-1.60" angle="90.00" type="ego_type" speed="13.89" pos="231.17" lane="e0_0" slope="0.00"/>
    </timestep>
    <timestep time="54.50">
        <vehicle id="background.0" x="299.00" y="-1.60" angle="90.00" type="human" speed="0.00" pos="299.00" lane="e0_0" slope="0.00"/>
        <vehicle id="background.1" x="291.14" y="-1.60" angle="90.00" type="human" speed="0.63" pos="291.14" lane="e0_0" slope="0.00"/>
        <vehicle id="background.2" x="83.50" y="-1.60" angle="90.00" type="human" speed="12.90" pos="83.50" lane="e0_0" slope="0.00"/>
        <vehicle id="ego" x="238.11" y="-1.60" angle="90.00" type="ego_type" speed="13.89" pos="238.11" lane="e0_0" slope="0.00"/>
    </timestep>
    <timestep time="55.00">
        <vehicle id="background.0" x="299.00" y="-1.60" angle="90.00" type="human" speed="0.00" pos="299.00" lane="e0_0" slope="0.00"/>
        <vehicle id="background.1" x="291.27" y="-1.60" angle="90.00" type="human" speed="0.27" pos="291.27" lane="e0_0" slope="0.00"/>
        <vehicle id="background.2" x="90.00" y="-1.60" angle="90.00" type="human" speed="13.01" pos="90.00" lane="e0_0" slope="0.00"/>
        <vehicle id="ego" x="245.06" y="-1.60" angle="90.00" type="ego_type" speed="13.89" pos="245.06" lane="e0_0" slope="0.00"/>
    </timestep>
    <timestep time="55.50">
        <vehicle id="background.0" x="299.00" y="-1.60" angle="90.00" type="human" speed="0.00" pos="299.00" lane="e0_0" slope="0.00"/>
        <vehicle id="background.1" x="291.36" y="-1.60" angle="90.00" type="human" speed="0.18" pos="291.36" lane="e0_0" slope="0.00"/>
        <vehicle id="background.2" x="96.58" y="-1.60" angle="90.00" type="human" speed="13.16" pos="96.58" lane="e0_0" slope="0.00"/>
        <vehicle id="background.3" x="5.10" y="-1.60" angle="90.00" type="human" speed="13.89" pos="5.10" lane="e0_0" slope="0.00"/>
        <vehicle id="ego" x="252.00" y="-1.60" angle="90.00" type="ego_type" speed="13.89" pos="252.00" lane="e0_0" slope="0.00"/>
    </timestep>
    <timestep time="56.00">
        <vehicle id="background.0" x="299.00" y="-1.60" angle="90.00" type="human" speed="0.00" pos="299.00" lane="e0_0" slope="0.00"/>
        <vehicle id="background.1" x="291.42" y="-1.60" angle="90.00" type="human" speed="0.11" pos="291.42" lane="e0_0" slope="0.00"/>
        <vehicle id="background.2" x="103.13" y="-1.60" angle="90.00" type="human" speed="13.10" pos="103.13" lane="e0_0" slope="0.00"/>
        <vehicle id="background.3" x="11.95" y="-1.60" angle="90.00" type="human" speed="13.70" pos="11.95" lane="e0_0" slope="0.00"/>
        <vehicle id="ego" x="258.94" y="-1.60" angle="90.00" type="ego_type" speed="13.87" pos="258.94" lane="e0_0" slope="0.00"/>
    </timestep>
    <timestep time="56.50">
        <vehicle id="background.0" x="299.00" y="-1.60" angle="90.00" type="human" speed="0.00" pos="299.00" lane="e0_0" slope="0.00"/>
        <vehicle id="background.1" x="291.46" y="-1.60" angle="90.00" type="human" speed="0.08" pos="291.46" lane="e0_0" slope="0.00"/>
        <vehicle id="background.2" x="109.68" y="-1.60" angle="90.00" type="human" speed="13.09" pos="109.68" lane="e0_0" slope="0.00"/>
        <vehicle id="background.3" x="18.69" y="-1.60" angle="90.00" type="human" speed="13.49" pos="18.69" lane="e0_0" slope="0.00"/>
        <vehicle id="ego" x="264.92" y="-1.60" angle="90.00" type="ego_type" speed="11.96" pos="264.92" lane="e0_0" slope="0.00"/>
    </timestep>
    <timestep time="57.00">