<?xml version="1.0" encoding="UTF-8"?>

<!-- generated on 2026-05-14 17:05:13 by Eclipse SUMO sumo Version 1.24.0
<sumoConfiguration xmlns:xsi="http://www.w3.org/2001/XMLSchema-instance" xsi:noNamespaceSchemaLocation="http://sumo.dlr.de/xsd/sumoConfiguration.xsd">

    <input>
        <net-file value="scenarios/simple_arterial/simple_arterial.net.xml"/>
        <route-files value="scenarios/simple_arterial/simple_arterial.rou.xml"/>
        <additional-files value="scenarios/simple_arterial/simple_arterial.tls.xml"/>
    </input>

    <output>
        <fcd-output value="runs/fcd_expert_default/episode_00074_seed_116.fcd.xml"/>
    </output>

    <time>
        <begin value="0"/>
        <end value="900"/>
        <step-length value="0.5"/>
    </time>

    <report>
        <no-warnings value="true"/>
    </report>

    <traci_server>
        <remote-port value="24542"/>
    </traci_server>

    <random_number>
        <seed value="116"/>
    </random_number>

</sumoConfiguration>
-->

<fcd-export xmlns:xsi="http://www.w3.org/2001/XMLSchema-instance" xsi:noNamespaceSchemaLocation="http://sumo.dlr.de/xsd/fcd_file.xsd">
    <timestep time="0.00"/>
    <timestep time="0.50"/>
    <timestep time="1.00"/>
    <timestep time="1.50"/>
    <timestep time="2.00"/>
    <timestep time="2.50"/>
    <timestep time="3.00">
        <vehicle id="background.0" x="5.10" y="-1.60" angle="90.00" type="human" speed="11.27" pos="5.10" lane="e0_0" slope="0.00"/>
    </timestep>
    <timestep time="3.50">
        <vehicle id="background.0" x="10.62" y="-1.60" angle="90.00" type="human" speed="11.04" pos="10.62" lane="e0_0" slope="0.00"/>
    </timestep>
    <timestep time="4.00">
        <vehicle id="background.0" x="16.06" y="-1.60" angle="90.00" type="human" speed="10.88" pos="16.06" lane="e0_0" slope="0.00"/>
        <vehicle id="background.1" x="5.10" y="-1.60" angle="90.00" type="human" speed="8.28" pos="5.10" lane="e0_0" slope="0.00"/>
    </timestep>
    <timestep time="4.50">
        <vehicle id="background.0" x="21.62" y="-1.60" angle="90.00" type="human" speed="11.12" pos="21.62" lane="e0_0" slope="0.00"/>
        <vehicle id="background.1" x="9.23" y="-1.60" angle="90.00" type="human" speed="8.26" pos="9.23" lane="e0_0" slope="0.00"/>
    </timestep>
    <timestep time="5.00">
        <vehicle id="background.0" x="27.20" y="-1.60" angle="90.00" type="human" speed="11.15" pos="27.20" lane="e0_0" slope="0.00"/>
        <vehicle id="background.1" x="13.71" y="-1.60" angle="90.00" type="human" speed="8.96" pos="13.71" lane="e0_0" slope="0.00"/>
    </timestep>
    <timestep time="5.50">
        <vehicle id="background.0" x="32.61" y="-1.60" angle="90.00" type="human" speed="10.83" pos="32.61" lane="e0_0" slope="0.00"/>
        <vehicle id="background.1" x="18.42" y="-1.60" angle="90.00" type="human" speed="9.41" pos="18.42" lane="e0_0" slope="0.00"/>
    </timestep>
    <timestep time="6.00">
        <vehicle id="background.0" x="38.20" y="-1.60" angle="90.00" type="human" speed="11.18" pos="38.20" lane="e0_0" slope="0.00"/>
        <vehicle id="background.1" x="22.89" y="-1.60" angle="90.00" type="human" speed="8.96" pos="22.89" lane="e0_0" slope="0.00"/>
    </timestep>
    <timestep time="6.50">
        <vehicle id="background.0" x="43.60" y="-1.60" angle="90.00" type="human" speed="10.80" pos="43.60" lane="e0_0" slope="0.00"/>
        <vehicle id="background.1" x="27.72" y="-1.60" angle="90.00" type="human" speed="9.65" pos="27.72" lane="e0_0" slope="0.00"/>
    </timestep>
    <timestep time="7.00">
        <vehicle id="background.0" x="49.23" y="-1.60" angle="90.00" type="human" speed="11.25" pos="49.23" lane="e0_0" slope="0.00"/>
        <vehicle id="background.1" x="32.60" y="-1.60" angle="90.00" type="human" speed="9.76" pos="32.60" lane="e0_0" slope="0.00"/>
    </timestep>
    <timestep time="7.50">
        <vehicle id="background.0" x="54.67" y="-1.60" angle="90.00" type="human" speed="10.89" pos="54.67" lane="e0_0" slope="0.00"/>
        <vehicle id="background.1" x="37.69" y="-1.60" angle="90.00" type="human" speed="10.19" pos="37.69" lane="e0_0" slope="0.00"/>
    </timestep>
    <timestep time="8.00">
        <vehicle id="background.0" x="60.28" y="-1.60" angle="90.00" type="human" speed="11.23" pos="60.28" lane="e0_0" slope="0.00"/>
        <vehicle id="background.1" x="42.66" y="-1.60" angle="90.00" type="human" speed="9.93" pos="42.66" lane="e0_0" slope="0.00"/>
    </timestep>
    <timestep time="8.50">
        <vehicle id="background.0" x="65.88" y="-1.60" angle="90.00" type="human" speed="11.20" pos="65.88" lane="e0_0" slope="0.00"/>
        <vehicle id="background.1" x="47.93" y="-1.60" angle="90.00" type="human" speed="10.54" pos="47.93" lane="e0_0" slope="0.00"/>
    </timestep>
    <timestep time="9.00">
        <vehicle id="background.0" x="71.35" y="-1.60" angle="90.00" type="human" speed="10.93" pos="71.35" lane="e0_0" slope="0.00"/>
        <vehicle id="background.1" x="53.16" y="-1.60" angle="90.00" type="human" speed="10.45" pos="53.16" lane="e0_0" slope="0.00"/>
    </timestep>
    <timestep time="9.50">
        <vehicle id="background.0" x="76.74" y="-1.60" angle="90.00" type="human" speed="10.79" pos="76.74" lane="e0_0" slope="0.00"/>
        <vehicle id="background.1" x="58.37" y="-1.60" angle="90.00" type="human" speed="10.42" pos="58.37" lane="e0_0" slope="0.00"/>
    </timestep>
    <timestep time="10.00">
        <vehicle id="background.0" x="82.18" y="-1.60" angle="90.00" type="human" speed="10.86" pos="82.18" lane="e0_0" slope="0.00"/>
        <vehicle id="background.1" x="63.63" y="-1.60" angle="90.00" type="human" speed="10.53" pos="63.63" lane="e0_0" slope="0.00"/>
    </timestep>
    <timestep time="10.50">
        <vehicle id="background.0" x="87.59" y="-1.60" angle="90.00" type="human" speed="10.82" pos="87.59" lane="e0_0" slope="0.00"/>
        <vehicle id="background.1" x="68.86" y="-1.60" angle="90.00" type="human" speed="10.46" pos="68.86" lane="e0_0" slope="0.00"/>
    </timestep>
    <timestep time="11.00">
        <vehicle id="background.0" x="93.03" y="-1.60" angle="90.00" type="human" speed="10.90" pos="93.03" lane="e0_0" slope="0.00"/>
        <vehicle id="background.1" x="74.24" y="-1.60" angle="90.00" type="human" speed="10.76" pos="74.24" lane="e0_0" slope="0.00"/>
    </timestep>
    <timestep time="11.50">
        <vehicle id="background.0" x="98.49" y="-1.60" angle="90.00" type="human" speed="10.91" pos="98.49" lane="e0_0" slope="0.00"/>
        <vehicle id="background.1" x="79.52" y="-1.60" angle="90.00" type="human" speed="10.56" pos="79.52" lane="e0_0" slope="0.00"/>
        <vehicle id="background.2" x="5.10" y="-1.60" angle="90.00" type="human" speed="13.31" pos="5.10" lane="e0_0" slope="0.00"/>
    </timestep>
    <timestep time="12.00">
        <vehicle id="background.0" x="104.09" y="-1.60" angle="90.00" type="human" speed="11.19" pos="104.09" lane="e0_0" slope="0.00"/>
        <vehicle id="background.1" x="85.04" y="-1.60" angle="90.00" type="human" speed="11.03" pos="85.04" lane="e0_0" slope="0.00"/>
        <vehicle id="background.2" x="11.57" y="-1.60" angle="90.00" type="human" speed="12.94" pos="11.57" lane="e0_0" slope="0.00"/>
    </timestep>
    <timestep time="12.50">
        <vehicle id="background.0" x="109.54" y="-1.60" angle="90.00" type="human" speed="10.92" pos="109.54" lane="e0_0" slope="0.00"/>
        <vehicle id="background.1" x="90.62" y="-1.60" angle="90.00" type="human" speed="11.16" pos="90.62" lane="e0_0" slope="0.00"/>
        <vehicle id="background.2" x="18.04" y="-1.60" angle="90.00" type="human" speed="12.94" pos="18.04" lane="e0_0" slope="0.00"/>
    </timestep>
    <timestep time="13.00">
        <vehicle id="background.0" x="115.03" y="-1.60" angle="90.00" type="human" speed="10.98" pos="115.03" lane="e0_0" slope="0.00"/>
        <vehicle id="background.1" x="96.15" y="-1.60" angle="90.00" type="human" speed="11.07" pos="96.15" lane="e0_0" slope="0.00"/>
        <vehicle id="background.2" x="24.69" y="-1.60" angle="90.00" type="human" speed="13.29" pos="24.69" lane="e0_0" slope="0.00"/>
    </timestep>
    <timestep time="13.50">
        <vehicle id="background.0" x="120.46" y="-1.60" angle="90.00" type="human" speed="10.85" pos="120.46" lane="e0_0" slope="0.00"/>
        <vehicle id="background.1" x="101.70" y="-1.60" angle="90.00" type="human" speed="11.10" pos="101.70" lane="e0_0" slope="0.00"/>
        <vehicle id="background.2" x="31.31" y="-1.60" angle="90.00" type="human" speed="13.24" pos="31.31" lane="e0_0" slope="0.00"/>
    </timestep>
    <timestep time="14.00">
        <vehicle id="background.0" x="126.09" y="-1.60" angle="90.00" type="human" speed="11.26" pos="126.09" lane="e0_0" slope="0.00"/>
        <vehicle id="background.1" x="107.04" y="-1.60" angle="90.00" type="human" speed="10.68" pos="107.04" lane="e0_0" slope="0.00"/>
        <vehicle id="background.2" x="37.83" y="-1.60" angle="90.00" type="human" speed="13.04" pos="37.83" lane="e0_0" slope="0.00"/>
        <vehicle id="background.3" x="5.10" y="-1.60" angle="90.00" type="human" speed="13.89" pos="5.10" lane="e0_0" slope="0.00"/>
    </timestep>
    <timestep time="14.50">
        <vehicle id="background.0" x="131.54" y="-1.60" angle="90.00" type="human" speed="10.91" pos="131.54" lane="e0_0" slope="0.00"/>
        <vehicle id="background.1" x="112.69" y="-1.60" angle="90.00" type="human" speed="11.30" pos="112.69" lane="e0_0" slope="0.00"/>
        <vehicle id="background.2" x="44.26" y="-1.60" angle="90.00" type="human" speed="12.86" pos="44.26" lane="e0_0" slope="0.00"/>
        <vehicle id="background.3" x="11.82" y="-1.60" angle="90.00" type="human" speed="13.45" pos="11.82" lane="e0_0" slope="0.00"/>
    </timestep>
    <timestep time="15.00">
        <vehicle id="background.0" x="137.15" y="-1.60" angle="90.00" type="human" speed="11.22" pos="137.15" lane="e0_0" slope="0.00"/>
        <vehicle id="background.1" x="117.98" y="-1.60" angle="90.00" type="human" speed="10.58" pos="117.98" lane="e0_0" slope="0.00"/>
        <vehicle id="background.2" x="50.89" y="-1.60" angle="90.00" type="human" speed="13.25" pos="50.89" lane="e0_0" slope="0.00"/>
        <vehicle id="background.3" x="18.56" y="-1.60" angle="90.00" type="human" speed="13.48" pos="18.56" lane="e0_0" slope="0.00"/>
    </timestep>
    <timestep time="15.50">
        <vehicle id="background.0" x="142.67" y="-1.60" angle="90.00" type="human" speed="11.03" pos="142.67" lane="e0_0" slope="0.00"/>
        <vehicle id="background.1" x="123.46" y="-1.60" angle="90.00" type="human" speed="10.96" pos="123.46" lane="e0_0" slope="0.00"/>
        <vehicle id="background.2" x="57.38" y="-1.60" angle="90.00" type="human" speed="12.99" pos="57.38" lane="e0_0" slope="0.00"/>
        <vehicle id="background.3" x="25.32" y="-1.60" angle="90.00" type="human" speed="13.52" pos="25.32" lane="e0_0" slope="0.00"/>
    </timestep>
    <timestep time="16.00">
        <vehicle id="background.0" x="148.13" y="-1.60" angle="90.00" type="human" speed="10.93" pos="148.13" lane="e0_0" slope="0.00"/>
        <vehicle id="background.1" x="128.84" y="-1.60" angle="90.00" type="human" speed="10.77" pos="128.84" lane="e0_0" slope="0.00"/>
        <vehicle id="background.2" x="63.90" y="-1.60" angle="90.00" type="human" speed="13.03" pos="63.90" lane="e0_0" slope="0.00"/>
        <vehicle id="background.3" x="32.14" y="-1.60" angle="90.00" type="human" speed="13.64" pos="32.14" lane="e0_0" slope="0.00"/>
        <vehicle id="ego" x="5.10" y="-1.60" angle="90.00" type="ego_type" speed="0.00" pos="5.10" lane="e0_0" slope="0.00"/>
    </timestep>
    <timestep time="16.50">
        <vehicle id="background.0" x="153.55" y="-1.60" angle="90.00" type="human" speed="10.84" pos="153.55" lane="e0_0" slope="0.00"/>
        <vehicle id="background.1" x="134.22" y="-1.60" angle="90.00" type="human" speed="10.76" pos="134.22" lane="e0_0" slope="0.00"/>
        <vehicle id="background.2" x="70.46" y="-1.60" angle="90.00" type="human" speed="13.13" pos="70.46" lane="e0_0" slope="0.00"/>
        <vehicle id="background.3" x="38.94" y="-1.60" angle="90.00" type="human" speed="13.59" pos="38.94" lane="e0_0" slope="0.00"/>
        <vehicle id="ego" x="5.60" y="-1.60" angle="90.00" type="ego_type" speed="1.00" pos="5.60" lane="e0_0" slope="0.00"/>
    </timestep>
    <timestep time="17.00">
        <vehicle id="background.0" x="159.05" y="-1.60" angle="90.00" type="human" speed="11.00" pos="159.05" lane="e0_0" slope="0.00"/>
        <vehicle id="background.1" x="139.66" y="-1.60" angle="90.00" type="human" speed="10.88" pos="139.66" lane="e0_0" slope="0.00"/>
        <vehicle id="background.2" x="76.93" y="-1.60" angle="90.00" type="human" speed="12.93" pos="76.93" lane="e0_0" slope="0.00"/>
        <vehicle id="background.3" x="45.87" y="-1.60" angle="90.00" type="human" speed="13.86" pos="45.87" lane="e0_0" slope="0.00"/>
        <vehicle id="ego" x="6.60" y="-1.60" angle="90.00" type="ego_type" speed="2.00" pos="6.60" lane="e0_0" slope="0.00"/>
    </timestep>
    <timestep time="17.50">
        <vehicle id="background.0" x="164.61" y="-1.60" angle="90.00" type="human" speed="11.12" pos="164.61" lane="e0_0" slope="0.00"/>
        <vehicle id="background.1" x="145.30" y="-1.60" angle="90.00" type="human" speed="11.27" pos="145.30" lane="e0_0" slope="0.00"/>
        <vehicle id="background.2" x="83.55" y="-1.60" angle="90.00" type="human" speed="13.25" pos="83.55" lane="e0_0" slope="0.00"/>
        <vehicle id="background.3" x="52.62" y="-1.60" angle="90.00" type="human" speed="13.51" pos="52.62" lane="e0_0" slope="0.00"/>
        <vehicle id="ego" x="8.10" y="-1.60" angle="90.00" type="ego_type" speed="3.00" pos="8.10" lane="e0_0" slope="0.00"/>
    </timestep>
    <timestep time="18.00">
        <vehicle id="background.0" x="170.15" y="-1.60" angle="90.00" type="human" speed="11.09" pos="170.15" lane="e0_0" slope="0.00"/>
        <vehicle id="background.1" x="150.85" y="-1.60" angle="90.00" type="human" speed="11.09" pos="150.85" lane="e0_0" slope="0.00"/>
        <vehicle id="background.2" x="90.19" y="-1.60" angle="90.00" type="human" speed="13.28" pos="90.19" lane="e0_0" slope="0.00"/>
        <vehicle id="background.3" x="59.53" y="-1.60" angle="90.00" type="human" speed="13.81" pos="59.53" lane="e0_0" slope="0.00"/>
        <vehicle id="ego" x="10.10" y="-1.60" angle="90.00" type="ego_type" speed="4.00" pos="10.10" lane="e0_0" slope="0.00"/>
    </timestep>
    <timestep time="18.50">
        <vehicle id="background.0" x="175.76" y="-1.60" angle="90.00" type="human" speed="11.21" pos="175.76" lane="e0_0" slope="0.00"/>
        <vehicle id="background.1" x="156.33" y="-1.60" angle="90.00" type="human" speed="10.97" pos="156.33" lane="e0_0" slope="0.00"/>
        <vehicle id="background.2" x="96.68" y="-1.60" angle="90.00" type="human" speed="12.99" pos="96.68" lane="e0_0" slope="0.00"/>
        <vehicle id="background.3" x="66.26" y="-1.60" angle="90.00" type="human" speed="13.46" pos="66.26" lane="e0_0" slope="0.00"/>
        <vehicle id="ego" x="12.60" y="-1.60" angle="90.00" type="ego_type" speed="5.00" pos="12.60" lane="e0_0" slope="0.00"/>
    </timestep>
    <timestep time="19.00">
        <vehicle id="background.0" x="181.37" y="-1.60" angle="90.00" type="human" speed="11.23" pos="181.37" lane="e0_0" slope="0.00"/>
        <vehicle id="background.1" x="161.87" y="-1.60" angle="90.00" type="human" speed="11.08" pos="161.87" lane="e0_0" slope="0.00"/>
        <vehicle id="background.2" x="103.23" y="-1.60" angle="90.00" type="human" speed="13.09" pos="103.23" lane="e0_0" slope="0.00"/>
        <vehicle id="background.3" x="73.20" y="-1.60" angle="90.00" type="human" speed="13.87" pos="73.20" lane="e0_0" slope="0.00"/>
        <vehicle id="ego" x="15.60" y="-1.60" angle="90.00" type="ego_type" speed="6.00" pos="15.60" lane="e0_0" slope="0.00"/>
    </timestep>
    <timestep time="19.50">
        <vehicle id="background.0" x="186.77" y="-1.60" angle="90.00" type="human" speed="10.80" pos="186.77" lane="e0_0" slope="0.00"/>
        <vehicle id="background.1" x="167.40" y="-1.60" angle="90.00" type="human" speed="11.05" pos="167.40" lane="e0_0" slope="0.00"/>
        <vehicle id="background.2" x="109.70" y="-1.60" angle="90.00" type="human" speed="12.95" pos="109.70" lane="e0_0" slope="0.00"/>
        <vehicle id="background.3" x="79.93" y="-1.60" angle="90.00" type="human" speed="13.46" pos="79.93" lane="e0_0" slope="0.00"/>
        <vehicle id="ego" x="19.10" y="-1.60" angle="90.00" type="ego_type" speed="7.00" pos="19.10" lane="e0_0" slope="0.00"/>
    </timestep>
    <timestep time="20.00">
        <vehicle id="background.0" x="192.36" y="-1.60" angle="90.00" type="human" speed="11.18" pos="192.36" lane="e0_0" slope="0.00"/>
        <vehicle id="background.1" x="172.81" y="-1.60" angle="90.00" type="human" speed="10.83" pos="172.81" lane="e0_0" slope="0.00"/>
        <vehicle id="background.2" x="116.18" y="-1.60" angle="90.00" type="human" speed="12.96" pos="116.18" lane="e0_0" slope="0.00"/>
        <vehicle id="background.3" x="86.68" y="-1.60" angle="90.00" type="human" speed="13.50" pos="86.68" lane="e0_0" slope="0.00"/>
        <vehicle id="ego" x="23.10" y="-1.60" angle="90.00" type="ego_type" speed="8.00" pos="23.10" lane="e0_0" slope="0.00"/>
    </timestep>
    <timestep time="20.50">
        <vehicle id="background.0" x="197.84" y="-1.60" angle="90.00" type="human" speed="10.95" pos="197.84" lane="e0_0" slope="0.00"/>
        <vehicle id="background.1" x="178.35" y="-1.60" angle="90.00" type="human" speed="11.07" pos="178.35" lane="e0_0" slope="0.00"/>
        <vehicle id="background.2" x="122.66" y="-1.60" angle="90.00" type="human" speed="12.97" pos="122.66" lane="e0_0" slope="0.00"/>
        <vehicle id="background.3" x="93.44" y="-1.60" angle="90.00" type="human" speed="13.53" pos="93.44" lane="e0_0" slope="0.00"/>
        <vehicle id="ego" x="27.60" y="-1.60" angle="90.00" type="ego_type" speed="9.00" pos="27.60" lane="e0_0" slope="0.00"/>
    </timestep>
    <timestep time="21.00">
        <vehicle id="background.0" x="203.42" y="-1.60" angle="90.00" type="human" speed="11.18" pos="203.42" lane="e0_0" slope="0.00"/>
        <vehicle id="background.1" x="183.75" y="-1.60" angle="90.00" type="human" speed="10.81" pos="183.75" lane="e0_0" slope="0.00"/>
        <vehicle id="background.2" x="129.16" y="-1.60" angle="90.00" type="human" speed="13.00" pos="129.16" lane="e0_0" slope="0.00"/>
        <vehicle id="background.3" x="100.37" y="-1.60" angle="90.00" type="human" speed="13.85" pos="100.37" lane="e0_0" slope="0.00"/>
        <vehicle id="ego" x="32.60" y="-1.60" angle="90.00" type="ego_type" speed="10.00" pos="32.60" lane="e0_0" slope="0.00"/>
    </timestep>
    <timestep time="21.50">
        <vehicle id="background.0" x="208.94" y="-1.60" angle="90.00" type="human" speed="11.04" pos="208.94" lane="e0_0" slope="0.00"/>
        <vehicle id="background.1" x="189.44" y="-1.60" angle="90.00" type="human" speed="11.36" pos="189.44" lane="e0_0" slope="0.00"/>
        <vehicle id="background.2" x="135.75" y="-1.60" angle="90.00" type="human" speed="13.16" pos="135.75" lane="e0_0" slope="0.00"/>
        <vehicle id="background.3" x="107.07" y="-1.60" angle="90.00" type="human" speed="13.40" pos="107.07" lane="e0_0" slope="0.00"/>
        <vehicle id="ego" x="38.10" y="-1.60" angle="90.00" type="ego_type" speed="11.00" pos="38.10" lane="e0_0" slope="0.00"/>
    </timestep>
    <timestep time="22.00">
        <vehicle id="background.0" x="214.40" y="-1.60" angle="90.00" type="human" speed="10.91" pos="214.40" lane="e0_0" slope="0.00"/>
        <vehicle id="background.1" x="194.92" y="-1.60" angle="90.00" type="human" speed="10.97" pos="194.92" lane="e0_0" slope="0.00"/>
        <vehicle id="background.2" x="142.26" y="-1.60" angle="90.00" type="human" speed="13.03" pos="142.26" lane="e0_0" slope="0.00"/>
        <vehicle id="background.3" x="113.82" y="-1.60" angle="90.00" type="human" speed="13.50" pos="113.82" lane="e0_0" slope="0.00"/>
        <vehicle id="ego" x="43.74" y="-1.60" angle="90.00" type="ego_type" speed="11.27" pos="43.74" lane="e0_0" slope="0.00"/>
    </timestep>
    <timestep time="22.50">
        <vehicle id="background.0" x="219.98" y="-1.60" angle="90.00" type="human" speed="11.15" pos="219.98" lane="e0_0" slope="0.00"/>
        <vehicle id="background.1" x="200.53" y="-1.60" angle="90.00" type="human" speed="11.23" pos="200.53" lane="e0_0" slope="0.00"/>
        <vehicle id="background.2" x="148.87" y="-1.60" angle="90.00" type="human" speed="13.22" pos="148.87" lane="e0_0" slope="0.00"/>
        <vehicle id="background.3" x="120.59" y="-1.60" angle="90.00" type="human" speed="13.54" pos="120.59" lane="e0_0" slope="0.00"/>
        <vehicle id="ego" x="49.37" y="-1.60" angle="90.00" type="ego_type" speed="11.27" pos="49.37" lane="e0_0" slope="0.00"/>
    </timestep>
    <timestep time="23.00">
        <vehicle id="background.0" x="225.42" y="-1.60" angle="90.00" type="human" speed="10.89" pos="225.42" lane="e0_0" slope="0.00"/>
        <vehicle id="background.1" x="205.99" y="-1.60" angle="90.00" type="human" speed="10.92" pos="205.99" lane="e0_0" slope="0.00"/>
        <vehicle id="background.2" x="155.33" y="-1.60" angle="90.00" type="human" speed="12.91" pos="155.33" lane="e0_0" slope="0.00"/>
        <vehicle id="background.3" x="127.29" y="-1.60" angle="90.00" type="human" speed="13.40" pos="127.29" lane="e0_0" slope="0.00"/>
        <vehicle id="ego" x="55.01" y="-1.60" angle="90.00" type="ego_type" speed="11.27" pos="55.01" lane="e0_0" slope="0.00"/>
    </timestep>
    <timestep time="23.50">
        <vehicle id="background.0" x="230.87" y="-1.60" angle="90.00" type="human" speed="10.89" pos="230.87" lane="e0_0" slope="0.00"/>
        <vehicle id="background.1" x="211.49" y="-1.60" angle="90.00" type="human" speed="10.99" pos="211.49" lane="e0_0" slope="0.00"/>
        <vehicle id="background.2" x="161.91" y="-1.60" angle="90.00" type="human" speed="13.17" pos="161.91" lane="e0_0" slope="0.00"/>
        <vehicle id="background.3" x="134.04" y="-1.60" angle="90.00" type="human" speed="13.50" pos="134.04" lane="e0_0" slope="0.00"/>
        <vehicle id="ego" x="60.64" y="-1.60" angle="90.00" type="ego_type" speed="11.27" pos="60.64" lane="e0_0" slope="0.00"/>
    </timestep>
    <timestep time="24.00">
        <vehicle id="background.0" x="236.40" y="-1.60" angle="90.00" type="human" speed="11.06" pos="236.40" lane="e0_0" slope="0.00"/>
        <vehicle id="background.1" x="217.07" y="-1.60" angle="90.00" type="human" speed="11.16" pos="217.07" lane="e0_0" slope="0.00"/>
        <vehicle id="background.2" x="168.42" y="-1.60" angle="90.00" type="human" speed="13.01" pos="168.42" lane="e0_0" slope="0.00"/>
        <vehicle id="background.3" x="140.91" y="-1.60" angle="90.00" type="human" speed="13.74" pos="140.91" lane="e0_0" slope="0.00"/>
        <vehicle id="ego" x="66.28" y="-1.60" angle="90.00" type="ego_type" speed="11.27" pos="66.28" lane="e0_0" slope="0.00"/>
    </timestep>
    <timestep time="24.50">
        <vehicle id="background.0" x="241.99" y="-1.60" angle="90.00" type="human" speed="11.19" pos="241.99" lane="e0_0" slope="0.00"/>
        <vehicle id="background.1" x="222.54" y="-1.60" angle="90.00" type="human" speed="10.94" pos="222.54" lane="e0_0" slope="0.00"/>
        <vehicle id="background.2" x="174.96" y="-1.60" angle="90.00" type="human" speed="13.08" pos="174.96" lane="e0_0" slope="0.00"/>
        <vehicle id="background.3" x="147.82" y="-1.60" angle="90.00" type="human" speed="13.82" pos="147.82" lane="e0_0" slope="0.00"/>
        <vehicle id="ego" x="71.91" y="-1.60" angle="90.00" type="ego_type" speed="11.27" pos="71.91" lane="e0_0" slope="0.00"/>
    </timestep>
    <timestep time="25.00">
        <vehicle id="background.0" x="247.42" y="-1.60" angle="90.00" type="human" speed="10.85" pos="247.42" lane="e0_0" slope="0.00"/>
        <vehicle id="background.1" x="228.19" y="-1.60" angle="90.00" type="human" speed="11.30" pos="228.19" lane="e0_0" slope="0.00"/>
        <vehicle id="background.2" x="181.49" y="-1.60" angle="90.00" type="human" speed="13.06" pos="181.49" lane="e0_0" slope="0.00"/>
        <vehicle id="background.3" x="154.72" y="-1.60" angle="90.00" type="human" speed="13.81" pos="154.72" lane="e0_0" slope="0.00"/>
        <vehicle id="ego" x="77.55" y="-1.60" angle="90.00" type="ego_type" speed="11.27" pos="77.55" lane="e0_0" slope="0.00"/>
    </timestep>
    <timestep time="25.50">
        <vehicle id="background.0" x="252.85" y="-1.60" angle="90.00" type="human" speed="10.86" pos="252.85" lane="e0_0" slope="0.00"/>
        <vehicle id="background.1" x="233.66" y="-1.60" angle="90.00" type="human" speed="10.94" pos="233.66" lane="e0_0" slope="0.00"/>
        <vehicle id="background.2" x="187.98" y="-1.60" angle="90.00" type="human" speed="12.98" pos="187.98" lane="e0_0" slope="0.00"/>
        <vehicle id="background.3" x="161.46" y="-1.60" angle="90.00" type="human" speed="13.48" pos="161.46" lane="e0_0" slope="0.00"/>
        <vehicle id="ego" x="83.18" y="-1.60" angle="90.00" type="ego_type" speed="11.27" pos="83.18" lane="e0_0" slope="0.00"/>
    </timestep>
    <timestep time="26.00">
        <vehicle id="background.0" x="258.46" y="-1.60" angle="90.00" type="human" speed="11.22" pos="258.46" lane="e0_0" slope="0.00"/>
        <vehicle id="background.1" x="239.17" y="-1.60" angle="90.00" type="human" speed="11.01" pos="239.17" lane="e0_0" slope="0.00"/>
        <vehicle id="background.2" x="194.40" y="-1.60" angle="90.00" type="human" speed="12.85" pos="194.40" lane="e0_0" slope="0.00"/>
        <vehicle id="background.3" x="168.19" y="-1.60" angle="90.00" type="human" speed="13.46" pos="168.19" lane="e0_0" slope="0.00"/>
        <vehicle id="ego" x="88.82" y="-1.60" angle="90.00" type="ego_type" speed="11.27" pos="88.82" lane="e0_0" slope="0.00"/>
    </timestep>
    <timestep time="26.50">
        <vehicle id="background.0" x="263.89" y="-1.60" angle="90.00" type="human" speed="10.87" pos="263.89" lane="e0_0" slope="0.00"/>
        <vehicle id="background.1" x="244.85" y="-1.60" angle="90.00" type="human" speed="11.36" pos="244.85" lane="e0_0" slope="0.00"/>
        <vehicle id="background.2" x="200.90" y="-1.60" angle="90.00" type="human" speed="13.00" pos="200.90" lane="e0_0" slope="0.00"/>
        <vehicle id="background.3" x="175.02" y="-1.60" angle="90.00" type="human" speed="13.66" pos="175.02" lane="e0_0" slope="0.00"/>
        <vehicle id="ego" x="94.45" y="-1.60" angle="90.00" type="ego_type" speed="11.27" pos="94.45" lane="e0_0" slope="0.00"/>
    </timestep>
    <timestep time="27.00">
        <vehicle id="background.0" x="269.37" y="-1.60" angle="90.00" type="human" speed="10.95" pos="269.37" lane="e0_0" slope="0.00"/>
        <vehicle id="background.1" x="250.19" y="-1.60" angle="90.00" type="human" speed="10.67" pos="250.19" lane="e0_0" slope="0.00"/>
        <vehicle id="background.2" x="207.33" y="-1.60" angle="90.00" type="human" speed="12.85" pos="207.33" lane="e0_0" slope="0.00"/>
        <vehicle id="background.3" x="181.78" y="-1.60" angle="90.00" type="human" speed="13.50" pos="181.78" lane="e0_0" slope="0.00"/>
        <vehicle id="ego" x="100.09" y="-1.60" angle="90.00" type="ego_type" speed="11.27" pos="100.09" lane="e0_0" slope="0.00"/>
    </timestep>
    <timestep time="27.50">
        <vehicle id="background.0" x="274.92" y="-1.60" angle="90.00" type="human" speed="11.10" pos="274.92" lane="e0_0" slope="0.00"/>
        <vehicle id="background.1" x="255.54" y="-1.60" angle="90.00" type="human" speed="10.70" pos="255.54" lane="e0_0" slope="0.00"/>
        <vehicle id="background.2" x="213.88" y="-1.60" angle="90.00" type="human" speed="13.10" pos="213.88" lane="e0_0" slope="0.00"/>
        <vehicle id="background.3" x="188.57" y="-1.60" angle="90.00" type="human" speed="13.58" pos="188.57" lane="e0_0" slope="0.00"/>
        <vehicle id="ego" x="105.72" y="-1.60" angle="90.00" type="ego_type" speed="11.27" pos="105.72" lane="e0_0" slope="0.00"/>
    </timestep>
    <timestep time="28.00">
        <vehicle id="background.0" x="280.42" y="-1.60" angle="90.00" type="human" speed="11.01" pos="280.42" lane="e0_0" slope="0.00"/>
        <vehicle id="background.1" x="261.07" y="-1.60" angle="90.00" type="human" speed="11.07" pos="261.07" lane="e0_0" slope="0.00"/>
        <vehicle id="background.2" x="220.39" y="-1.60" angle="90.00" type="human" speed="13.02" pos="220.39" lane="e0_0" slope="0.00"/>
        <vehicle id="background.3" x="195.31" y="-1.60" angle="90.00" type="human" speed="13.49" pos="195.31" lane="e0_0" slope="0.00"/>
        <vehicle id="ego" x="111.36" y="-1.60" angle="90.00" type="ego_type" speed="11.27" pos="111.36" lane="e0_0" slope="0.00"/>
    </timestep>
    <timestep time="28.50">
        <vehicle id="background.0" x="285.81" y="-1.60" angle="90.00" type="human" speed="10.78" pos="285.81" lane="e0_0" slope="0.00"/>
        <vehicle id="background.1" x="266.59" y="-1.60" angle="90.00" type="human" speed="11.04" pos="266.59" lane="e0_0" slope="0.00"/>
        <vehicle id="background.2" x="227.01" y="-1.60" angle="90.00" type="human" speed="13.23" pos="227.01" lane="e0_0" slope="0.00"/>
        <vehicle id="background.3" x="202.12" y="-1.60" angle="90.00" type="human" speed="13.61" pos="202.12" lane="e0_0" slope="0.00"/>
        <vehicle id="ego" x="116.99" y="-1.60" angle="90.00" type="ego_type" speed="11.27" pos="116.99" lane="e0_0" slope="0.00"/>
    </timestep>
    <timestep time="29.00">
        <vehicle id="background.0" x="291.23" y="-1.60" angle="90.00" type="human" speed="10.84" pos="291.23" lane="e0_0" slope="0.00"/>
        <vehicle id="background.1" x="271.98" y="-1.60" angle="90.00" type="human" speed="10.77" pos="271.98" lane="e0_0" slope="0.00"/>