<?xml version="1.0" encoding="UTF-8"?>

<!-- generated on 2026-05-13 21:24:00 by Eclipse SUMO sumo Version 1.24.0
<sumoConfiguration xmlns:xsi="http://www.w3.org/2001/XMLSchema-instance" xsi:noNamespaceSchemaLocation="http://sumo.dlr.de/xsd/sumoConfiguration.xsd">

    <input>
        <net-file value="scenarios/simple_arterial/simple_arterial.net.xml"/>
        <route-files value="scenarios/simple_arterial/simple_arterial.rou.xml"/>
        <additional-files value="scenarios/simple_arterial/simple_arterial.tls.xml"/>
    </input>

    <output>
        <fcd-output value="runs/fcd_expert_default/episode_00014_seed_56.fcd.xml"/>
    </output>

    <time>
        <begin value="0"/>
        <end value="900"/>
        <step-length value="0.5"/>
    </time>

    <report>
        <no-warnings value="true"/>
    </report>

    <traci_server>
        <remote-port value="23821"/>
    </traci_server>

    <random_number>
        <seed value="56"/>
    </random_number>

</sumoConfiguration>
-->

<fcd-export xmlns:xsi="http://www.w3.org/2001/XMLSchema-instance" xsi:noNamespaceSchemaLocation="http://sumo.dlr.de/xsd/fcd_file.xsd">
    <timestep time="0.00"/>
    <timestep time="0.50"/>
    <timestep time="1.00"/>
    <timestep time="1.50"/>
    <timestep time="2.00"/>
    <timestep time="2.50"/>
    <timestep time="3.00"/>
    <timestep time="3.50"/>
    <timestep time="4.00"/>
    <timestep time="4.50"/>
    <timestep time="5.00"/>
    <timestep time="5.50"/>
    <timestep time="6.00"/>
    <timestep time="6.50"/>
    <timestep time="7.00"/>
    <timestep time="7.50"/>
    <timestep time="8.00"/>
    <timestep time="8.50"/>
    <timestep time="9.00"/>
    <timestep time="9.50"/>
    <timestep time="10.00"/>
    <timestep time="10.50"/>
    <timestep time="11.00"/>
    <timestep time="11.50">
        <vehicle id="background.0" x="5.10" y="-1.60" angle="90.00" type="human" speed="13.21" pos="5.10" lane="e0_0" slope="0.00"/>
    </timestep>
    <timestep time="12.00">
        <vehicle id="background.0" x="11.68" y="-1.60" angle="90.00" type="human" speed="13.17" pos="11.68" lane="e0_0" slope="0.00"/>
    </timestep>
    <timestep time="12.50">
        <vehicle id="background.0" x="18.13" y="-1.60" angle="90.00" type="human" speed="12.90" pos="18.13" lane="e0_0" slope="0.00"/>
    </timestep>
    <timestep time="13.00">
        <vehicle id="background.0" x="24.68" y="-1.60" angle="90.00" type="human" speed="13.09" pos="24.68" lane="e0_0" slope="0.00"/>
    </timestep>
    <timestep time="13.50">
        <vehicle id="background.0" x="31.12" y="-1.60" angle="90.00" type="human" speed="12.88" pos="31.12" lane="e0_0" slope="0.00"/>
        <vehicle id="background.1" x="5.10" y="-1.60" angle="90.00" type="human" speed="13.89" pos="5.10" lane="e0_0" slope="0.00"/>
    </timestep>
    <timestep time="14.00">
        <vehicle id="background.0" x="37.62" y="-1.60" angle="90.00" type="human" speed="13.00" pos="37.62" lane="e0_0" slope="0.00"/>
        <vehicle id="background.1" x="11.80" y="-1.60" angle="90.00" type="human" speed="13.40" pos="11.80" lane="e0_0" slope="0.00"/>
    </timestep>
    <timestep time="14.50">
        <vehicle id="background.0" x="44.15" y="-1.60" angle="90.00" type="human" speed="13.05" pos="44.15" lane="e0_0" slope="0.00"/>
        <vehicle id="background.1" x="18.57" y="-1.60" angle="90.00" type="human" speed="13.54" pos="18.57" lane="e0_0" slope="0.00"/>
    </timestep>
    <timestep time="15.00">
        <vehicle id="background.0" x="50.61" y="-1.60" angle="90.00" type="human" speed="12.93" pos="50.61" lane="e0_0" slope="0.00"/>
        <vehicle id="background.1" x="25.32" y="-1.60" angle="90.00" type="human" speed="13.49" pos="25.32" lane="e0_0" slope="0.00"/>
    </timestep>
    <timestep time="15.50">
        <vehicle id="background.0" x="57.08" y="-1.60" angle="90.00" type="human" speed="12.94" pos="57.08" lane="e0_0" slope="0.00"/>
        <vehicle id="background.1" x="32.03" y="-1.60" angle="90.00" type="human" speed="13.42" pos="32.03" lane="e0_0" slope="0.00"/>
    </timestep>
    <timestep time="16.00">
        <vehicle id="background.0" x="63.49" y="-1.60" angle="90.00" type="human" speed="12.81" pos="63.49" lane="e0_0" slope="0.00"/>
        <vehicle id="background.1" x="38.85" y="-1.60" angle="90.00" type="human" speed="13.65" pos="38.85" lane="e0_0" slope="0.00"/>
    </timestep>
    <timestep time="16.50">
        <vehicle id="background.0" x="69.86" y="-1.60" angle="90.00" type="human" speed="12.75" pos="69.86" lane="e0_0" slope="0.00"/>
        <vehicle id="background.1" x="45.68" y="-1.60" angle="90.00" type="human" speed="13.66" pos="45.68" lane="e0_0" slope="0.00"/>
    </timestep>
    <timestep time="17.00">
        <vehicle id="background.0" x="76.33" y="-1.60" angle="90.00" type="human" speed="12.95" pos="76.33" lane="e0_0" slope="0.00"/>
        <vehicle id="background.1" x="52.43" y="-1.60" angle="90.00" type="human" speed="13.50" pos="52.43" lane="e0_0" slope="0.00"/>
    </timestep>
    <timestep time="17.50">
        <vehicle id="background.0" x="82.83" y="-1.60" angle="90.00" type="human" speed="13.00" pos="82.83" lane="e0_0" slope="0.00"/>
        <vehicle id="background.1" x="59.29" y="-1.60" angle="90.00" type="human" speed="13.71" pos="59.29" lane="e0_0" slope="0.00"/>
    </timestep>
    <timestep time="18.00">
        <vehicle id="background.0" x="89.42" y="-1.60" angle="90.00" type="human" speed="13.17" pos="89.42" lane="e0_0" slope="0.00"/>
        <vehicle id="background.1" x="66.04" y="-1.60" angle="90.00" type="human" speed="13.50" pos="66.04" lane="e0_0" slope="0.00"/>
    </timestep>
    <timestep time="18.50">
        <vehicle id="background.0" x="95.80" y="-1.60" angle="90.00" type="human" speed="12.76" pos="95.80" lane="e0_0" slope="0.00"/>
        <vehicle id="background.1" x="72.78" y="-1.60" angle="90.00" type="human" speed="13.48" pos="72.78" lane="e0_0" slope="0.00"/>
    </timestep>
    <timestep time="19.00">
        <vehicle id="background.0" x="102.30" y="-1.60" angle="90.00" type="human" speed="13.00" pos="102.30" lane="e0_0" slope="0.00"/>
        <vehicle id="background.1" x="79.47" y="-1.60" angle="90.00" type="human" speed="13.38" pos="79.47" lane="e0_0" slope="0.00"/>
    </timestep>
    <timestep time="19.50">
        <vehicle id="background.0" x="108.76" y="-1.60" angle="90.00" type="human" speed="12.92" pos="108.76" lane="e0_0" slope="0.00"/>
        <vehicle id="background.1" x="86.23" y="-1.60" angle="90.00" type="human" speed="13.52" pos="86.23" lane="e0_0" slope="0.00"/>
    </timestep>
    <timestep time="20.00">
        <vehicle id="background.0" x="115.31" y="-1.60" angle="90.00" type="human" speed="13.10" pos="115.31" lane="e0_0" slope="0.00"/>
        <vehicle id="background.1" x="92.98" y="-1.60" angle="90.00" type="human" speed="13.50" pos="92.98" lane="e0_0" slope="0.00"/>
    </timestep>
    <timestep time="20.50">
        <vehicle id="background.0" x="121.80" y="-1.60" angle="90.00" type="human" speed="12.99" pos="121.80" lane="e0_0" slope="0.00"/>
        <vehicle id="background.1" x="99.71" y="-1.60" angle="90.00" type="human" speed="13.46" pos="99.71" lane="e0_0" slope="0.00"/>
    </timestep>
    <timestep time="21.00">
        <vehicle id="background.0" x="128.29" y="-1.60" angle="90.00" type="human" speed="12.98" pos="128.29" lane="e0_0" slope="0.00"/>
        <vehicle id="background.1" x="106.22" y="-1.60" angle="90.00" type="human" speed="13.03" pos="106.22" lane="e0_0" slope="0.00"/>
    </timestep>
    <timestep time="21.50">
        <vehicle id="background.0" x="134.87" y="-1.60" angle="90.00" type="human" speed="13.16" pos="134.87" lane="e0_0" slope="0.00"/>
        <vehicle id="background.1" x="112.80" y="-1.60" angle="90.00" type="human" speed="13.15" pos="112.80" lane="e0_0" slope="0.00"/>
    </timestep>
    <timestep time="22.00">
        <vehicle id="background.0" x="141.24" y="-1.60" angle="90.00" type="human" speed="12.75" pos="141.24" lane="e0_0" slope="0.00"/>
        <vehicle id="background.1" x="119.47" y="-1.60" angle="90.00" type="human" speed="13.33" pos="119.47" lane="e0_0" slope="0.00"/>
    </timestep>
    <timestep time="22.50">
        <vehicle id="background.0" x="147.81" y="-1.60" angle="90.00" type="human" speed="13.13" pos="147.81" lane="e0_0" slope="0.00"/>
        <vehicle id="background.1" x="125.94" y="-1.60" angle="90.00" type="human" speed="12.94" pos="125.94" lane="e0_0" slope="0.00"/>
    </timestep>
    <timestep time="23.00">
        <vehicle id="background.0" x="154.19" y="-1.60" angle="90.00" type="human" speed="12.77" pos="154.19" lane="e0_0" slope="0.00"/>
        <vehicle id="background.1" x="132.46" y="-1.60" angle="90.00" type="human" speed="13.06" pos="132.46" lane="e0_0" slope="0.00"/>
        <vehicle id="background.2" x="5.10" y="-1.60" angle="90.00" type="human" speed="12.12" pos="5.10" lane="e0_0" slope="0.00"/>
    </timestep>
    <timestep time="23.50">
        <vehicle id="background.0" x="160.79" y="-1.60" angle="90.00" type="human" speed="13.18" pos="160.79" lane="e0_0" slope="0.00"/>
        <vehicle id="background.1" x="138.98" y="-1.60" angle="90.00" type="human" speed="13.03" pos="138.98" lane="e0_0" slope="0.00"/>
        <vehicle id="background.2" x="10.91" y="-1.60" angle="90.00" type="human" speed="11.63" pos="10.91" lane="e0_0" slope="0.00"/>
    </timestep>
    <timestep time="24.00">
        <vehicle id="background.0" x="167.28" y="-1.60" angle="90.00" type="human" speed="13.00" pos="167.28" lane="e0_0" slope="0.00"/>
        <vehicle id="background.1" x="145.70" y="-1.60" angle="90.00" type="human" speed="13.45" pos="145.70" lane="e0_0" slope="0.00"/>
        <vehicle id="background.2" x="16.77" y="-1.60" angle="90.00" type="human" speed="11.70" pos="16.77" lane="e0_0" slope="0.00"/>
    </timestep>
    <timestep time="24.50">
        <vehicle id="background.0" x="173.79" y="-1.60" angle="90.00" type="human" speed="13.01" pos="173.79" lane="e0_0" slope="0.00"/>
        <vehicle id="background.1" x="152.17" y="-1.60" angle="90.00" type="human" speed="12.94" pos="152.17" lane="e0_0" slope="0.00"/>
        <vehicle id="background.2" x="22.81" y="-1.60" angle="90.00" type="human" speed="12.09" pos="22.81" lane="e0_0" slope="0.00"/>
    </timestep>
    <timestep time="25.00">
        <vehicle id="background.0" x="180.36" y="-1.60" angle="90.00" type="human" speed="13.15" pos="180.36" lane="e0_0" slope="0.00"/>
        <vehicle id="background.1" x="158.83" y="-1.60" angle="90.00" type="human" speed="13.31" pos="158.83" lane="e0_0" slope="0.00"/>
        <vehicle id="background.2" x="28.64" y="-1.60" angle="90.00" type="human" speed="11.66" pos="28.64" lane="e0_0" slope="0.00"/>
    </timestep>
    <timestep time="25.50">
        <vehicle id="background.0" x="186.78" y="-1.60" angle="90.00" type="human" speed="12.85" pos="186.78" lane="e0_0" slope="0.00"/>
        <vehicle id="background.1" x="165.29" y="-1.60" angle="90.00" type="human" speed="12.92" pos="165.29" lane="e0_0" slope="0.00"/>
        <vehicle id="background.2" x="34.69" y="-1.60" angle="90.00" type="human" speed="12.10" pos="34.69" lane="e0_0" slope="0.00"/>
    </timestep>
    <timestep time="26.00">
        <vehicle id="background.0" x="193.34" y="-1.60" angle="90.00" type="human" speed="13.10" pos="193.34" lane="e0_0" slope="0.00"/>
        <vehicle id="background.1" x="171.87" y="-1.60" angle="90.00" type="human" speed="13.17" pos="171.87" lane="e0_0" slope="0.00"/>
        <vehicle id="background.2" x="40.60" y="-1.60" angle="90.00" type="human" speed="11.82" pos="40.60" lane="e0_0" slope="0.00"/>
    </timestep>
    <timestep time="26.50">
        <vehicle id="background.0" x="199.92" y="-1.60" angle="90.00" type="human" speed="13.17" pos="199.92" lane="e0_0" slope="0.00"/>
        <vehicle id="background.1" x="178.32" y="-1.60" angle="90.00" type="human" speed="12.90" pos="178.32" lane="e0_0" slope="0.00"/>
        <vehicle id="background.2" x="46.59" y="-1.60" angle="90.00" type="human" speed="11.98" pos="46.59" lane="e0_0" slope="0.00"/>
    </timestep>
    <timestep time="27.00">
        <vehicle id="background.0" x="206.52" y="-1.60" angle="90.00" type="human" speed="13.21" pos="206.52" lane="e0_0" slope="0.00"/>
        <vehicle id="background.1" x="184.93" y="-1.60" angle="90.00" type="human" speed="13.22" pos="184.93" lane="e0_0" slope="0.00"/>
        <vehicle id="background.2" x="52.65" y="-1.60" angle="90.00" type="human" speed="12.12" pos="52.65" lane="e0_0" slope="0.00"/>
    </timestep>
    <timestep time="27.50">
        <vehicle id="background.0" x="213.12" y="-1.60" angle="90.00" type="human" speed="13.20" pos="213.12" lane="e0_0" slope="0.00"/>
        <vehicle id="background.1" x="191.43" y="-1.60" angle="90.00" type="human" speed="13.00" pos="191.43" lane="e0_0" slope="0.00"/>
        <vehicle id="background.2" x="58.60" y="-1.60" angle="90.00" type="human" speed="11.89" pos="58.60" lane="e0_0" slope="0.00"/>
    </timestep>
    <timestep time="28.00">
        <vehicle id="background.0" x="219.68" y="-1.60" angle="90.00" type="human" speed="13.11" pos="219.68" lane="e0_0" slope="0.00"/>
        <vehicle id="background.1" x="198.01" y="-1.60" angle="90.00" type="human" speed="13.15" pos="198.01" lane="e0_0" slope="0.00"/>
        <vehicle id="background.2" x="64.42" y="-1.60" angle="90.00" type="human" speed="11.64" pos="64.42" lane="e0_0" slope="0.00"/>
    </timestep>
    <timestep time="28.50">
        <vehicle id="background.0" x="226.11" y="-1.60" angle="90.00" type="human" speed="12.87" pos="226.11" lane="e0_0" slope="0.00"/>
        <vehicle id="background.1" x="204.57" y="-1.60" angle="90.00" type="human" speed="13.13" pos="204.57" lane="e0_0" slope="0.00"/>
        <vehicle id="background.2" x="70.28" y="-1.60" angle="90.00" type="human" speed="11.72" pos="70.28" lane="e0_0" slope="0.00"/>
    </timestep>
    <timestep time="29.00">
        <vehicle id="background.0" x="232.49" y="-1.60" angle="90.00" type="human" speed="12.76" pos="232.49" lane="e0_0" slope="0.00"/>
        <vehicle id="background.1" x="211.15" y="-1.60" angle="90.00" type="human" speed="13.17" pos="211.15" lane="e0_0" slope="0.00"/>
        <vehicle id="background.2" x="76.14" y="-1.60" angle="90.00" type="human" speed="11.71" pos="76.14" lane="e0_0" slope="0.00"/>
    </timestep>
    <timestep time="29.50">
        <vehicle id="background.0" x="238.87" y="-1.60" angle="90.00" type="human" speed="12.76" pos="238.87" lane="e0_0" slope="0.00"/>
        <vehicle id="background.1" x="217.61" y="-1.60" angle="90.00" type="human" speed="12.91" pos="217.61" lane="e0_0" slope="0.00"/>
        <vehicle id="background.2" x="82.00" y="-1.60" angle="90.00" type="human" speed="11.73" pos="82.00" lane="e0_0" slope="0.00"/>
    </timestep>
    <timestep time="30.00">
        <vehicle id="background.0" x="245.37" y="-1.60" angle="90.00" type="human" speed="12.98" pos="245.37" lane="e0_0" slope="0.00"/>
        <vehicle id="background.1" x="223.97" y="-1.60" angle="90.00" type="human" speed="12.72" pos="223.97" lane="e0_0" slope="0.00"/>
        <vehicle id="background.2" x="87.94" y="-1.60" angle="90.00" type="human" speed="11.89" pos="87.94" lane="e0_0" slope="0.00"/>
    </timestep>
    <timestep time="30.50">
        <vehicle id="background.0" x="251.76" y="-1.60" angle="90.00" type="human" speed="12.78" pos="251.76" lane="e0_0" slope="0.00"/>
        <vehicle id="background.1" x="230.56" y="-1.60" angle="90.00" type="human" speed="13.19" pos="230.56" lane="e0_0" slope="0.00"/>
        <vehicle id="background.2" x="93.87" y="-1.60" angle="90.00" type="human" speed="11.85" pos="93.87" lane="e0_0" slope="0.00"/>
    </timestep>
    <timestep time="31.00">
        <vehicle id="background.0" x="258.33" y="-1.60" angle="90.00" type="human" speed="13.14" pos="258.33" lane="e0_0" slope="0.00"/>
        <vehicle id="background.1" x="237.04" y="-1.60" angle="90.00" type="human" speed="12.94" pos="237.04" lane="e0_0" slope="0.00"/>
        <vehicle id="background.2" x="99.76" y="-1.60" angle="90.00" type="human" speed="11.77" pos="99.76" lane="e0_0" slope="0.00"/>
    </timestep>
    <timestep time="31.50">
        <vehicle id="background.0" x="264.80" y="-1.60" angle="90.00" type="human" speed="12.94" pos="264.80" lane="e0_0" slope="0.00"/>
        <vehicle id="background.1" x="243.56" y="-1.60" angle="90.00" type="human" speed="13.05" pos="243.56" lane="e0_0" slope="0.00"/>
        <vehicle id="background.2" x="105.69" y="-1.60" angle="90.00" type="human" speed="11.87" pos="105.69" lane="e0_0" slope="0.00"/>
    </timestep>
    <timestep time="32.00">
        <vehicle id="background.0" x="271.16" y="-1.60" angle="90.00" type="human" speed="12.72" pos="271.16" lane="e0_0" slope="0.00"/>
        <vehicle id="background.1" x="250.07" y="-1.60" angle="90.00" type="human" speed="13.03" pos="250.07" lane="e0_0" slope="0.00"/>
        <vehicle id="background.2" x="111.63" y="-1.60" angle="90.00" type="human" speed="11.87" pos="111.63" lane="e0_0" slope="0.00"/>
    </timestep>
    <timestep time="32.50">
        <vehicle id="background.0" x="277.59" y="-1.60" angle="90.00" type="human" speed="12.88" pos="277.59" lane="e0_0" slope="0.00"/>
        <vehicle id="background.1" x="256.46" y="-1.60" angle="90.00" type="human" speed="12.77" pos="256.46" lane="e0_0" slope="0.00"/>
        <vehicle id="background.2" x="117.50" y="-1.60" angle="90.00" type="human" speed="11.76" pos="117.50" lane="e0_0" slope="0.00"/>
    </timestep>
    <timestep time="33.00">
        <vehicle id="background.0" x="284.03" y="-1.60" angle="90.00" type="human" speed="12.88" pos="284.03" lane="e0_0" slope="0.00"/>
        <vehicle id="background.1" x="262.83" y="-1.60" angle="90.00" type="human" speed="12.75" pos="262.83" lane="e0_0" slope="0.00"/>
        <vehicle id="background.2" x="123.48" y="-1.60" angle="90.00" type="human" speed="11.95" pos="123.48" lane="e0_0" slope="0.00"/>
    </timestep>
    <timestep time="33.50">
        <vehicle id="background.0" x="290.49" y="-1.60" angle="90.00" type="human" speed="12.91" pos="290.49" lane="e0_0" slope="0.00"/>
        <vehicle id="background.1" x="269.17" y="-1.60" angle="90.00" type="human" speed="12.67" pos="269.17" lane="e0_0" slope="0.00"/>
        <vehicle id="background.2" x="129.49" y="-1.60" angle="90.00" type="human" speed="12.03" pos="129.49" lane="e0_0" slope="0.00"/>
    </timestep>
    <timestep time="34.00">
        <vehicle id="background.0" x="296.85" y="-1.60" angle="90.00" type="human" speed="12.72" pos="296.85" lane="e0_0" slope="0.00"/>
        <vehicle id="background.1" x="275.59" y="-1.60" angle="90.00" type="human" speed="12.84" pos="275.59" lane="e0_0" slope="0.00"/>
        <vehicle id="background.2" x="135.33" y="-1.60" angle="90.00" type="human" speed="11.66" pos="135.33" lane="e0_0" slope="0.00"/>
    </timestep>
    <timestep time="34.50">
        <vehicle id="background.0" x="303.27" y="-1.60" angle="90.00" type="human" speed="13.06" pos="3.27" lane="e1_0" slope="0.00"/>
        <vehicle id="background.1" x="282.05" y="-1.60" angle="90.00" type="human" speed="12.92" pos="282.05" lane="e0_0" slope="0.00"/>
        <vehicle id="background.2" x="141.30" y="-1.60" angle="90.00" type="human" speed="11.94" pos="141.30" lane="e0_0" slope="0.00"/>
    </timestep>
    <timestep time="35.00">
        <vehicle id="background.0" x="309.79" y="-1.60" angle="90.00" type="human" speed="13.03" pos="9.79" lane="e1_0" slope="0.00"/>
        <vehicle id="background.1" x="288.65" y="-1.60" angle="90.00" type="human" speed="13.21" pos="288.65" lane="e0_0" slope="0.00"/>
        <vehicle id="background.2" x="147.29" y="-1.60" angle="90.00" type="human" speed="11.98" pos="147.29" lane="e0_0" slope="0.00"/>
    </timestep>
    <timestep time="35.50">
        <vehicle id="background.0" x="316.18" y="-1.60" angle="90.00" type="human" speed="12.79" pos="16.18" lane="e1_0" slope="0.00"/>
        <vehicle id="background.1" x="295.08" y="-1.60" angle="90.00" type="human" speed="12.85" pos="295.08" lane="e0_0" slope="0.00"/>
        <vehicle id="background.2" x="153.12" y="-1.60" angle="90.00" type="human" speed="11.66" pos="153.12" lane="e0_0" slope="0.00"/>
    </timestep>
    <timestep time="36.00">
        <vehicle id="background.0" x="322.68" y="-1.60" angle="90.00" type="human" speed="12.98" pos="22.68" lane="e1_0" slope="0.00"/>
        <vehicle id="background.1" x="301.33" y="-1.60" angle="90.00" type="human" speed="12.70" pos="1.33" lane="e1_0" slope="0.00"/>
        <vehicle id="background.2" x="158.98" y="-1.60" angle="90.00" type="human" speed="11.74" pos="158.98" lane="e0_0" slope="0.00"/>
    </timestep>
    <timestep time="36.50">
        <vehicle id="background.0" x="329.06" y="-1.60" angle="90.00" type="human" speed="12.76" pos="29.06" lane="e1_0" slope="0.00"/>
        <vehicle id="background.1" x="307.82" y="-1.60" angle="90.00" type="human" speed="12.98" pos="7.82" lane="e1_0" slope="0.00"/>
        <vehicle id="background.2" x="165.03" y="-1.60" angle="90.00" type="human" speed="12.09" pos="165.03" lane="e0_0" slope="0.00"/>
    </timestep>
    <timestep time="37.00">
        <vehicle id="background.0" x="335.42" y="-1.60" angle="90.00" type="human" speed="12.73" pos="35.42" lane="e1_0" slope="0.00"/>
        <vehicle id="background.1" x="314.32" y="-1.60" angle="90.00" type="human" speed="13.00" pos="14.32" lane="e1_0" slope="0.00"/>
        <vehicle id="background.2" x="170.93" y="-1.60" angle="90.00" type="human" speed="11.80" pos="170.93" lane="e0_0" slope="0.00"/>
    </timestep>
    <timestep time="37.50">
        <vehicle id="background.0" x="341.78" y="-1.60" angle="90.00" type="human" speed="12.73" pos="41.78" lane="e1_0" slope="0.00"/>
        <vehicle id="background.1" x="320.67" y="-1.60" angle="90.00" type="human" speed="12.69" pos="20.67" lane="e1_0" slope="0.00"/>
        <vehicle id="background.2" x="176.75" y="-1.60" angle="90.00" type="human" speed="11.64" pos="176.75" lane="e0_0" slope="0.00"/>
    </timestep>
    <timestep time="38.00">
        <vehicle id="background.0" x="348.25" y="-1.60" angle="90.00" type="human" speed="12.94" pos="48.25" lane="e1_0" slope="0.00"/>
        <vehicle id="background.1" x="327.08" y="-1.60" angle="90.00" type="human" speed="12.84" pos="27.08" lane="e1_0" slope="0.00"/>
        <vehicle id="background.2" x="182.74" y="-1.60" angle="90.00" type="human" speed="11.98" pos="182.74" lane="e0_0" slope="0.00"/>
    </timestep>
    <timestep time="38.50">
        <vehicle id="background.1" x="333.58" y="-1.60" angle="90.00" type="human" speed="12.99" pos="33.58" lane="e1_0" slope="0.00"/>
        <vehicle id="background.2" x="188.80" y="-1.60" angle="90.00" type="human" speed="12.12" pos="188.80" lane="e0_0" slope="0.00"/>
    </timestep>
    <timestep time="39.00">
        <vehicle id="background.1" x="340.31" y="-1.60" angle="90.00" type="human" speed="13.46" pos="40.31" lane="e1_0" slope="0.00"/>
        <vehicle id="background.2" x="194.69" y="-1.60" angle="90.00" type="human" speed="11.79" pos="194.69" lane="e0_0" slope="0.00"/>
    </timestep>
    <timestep time="39.50">
        <vehicle id="background.1" x="347.16" y="-1.60" angle="90.00" type="human" speed="13.70" pos="47.16" lane="e1_0" slope="0.00"/>
        <vehicle id="background.2" x="200.66" y="-1.60" angle="90.00" type="human" speed="11.93" pos="200.66" lane="e0_0" slope="0.00"/>
    </timestep>
    <timestep time="40.00">
        <vehicle id="background.2" x="206.69" y="-1.60" angle="90.00" type="human" speed="12.06" pos="206.69" lane="e0_0" slope="0.00"/>
    </timestep>
    <timestep time="40.50">
        <vehicle id="background.2" x="212.64" y="-1.60" angle="90.00" type="human" speed="11.91" pos="212.64" lane="e0_0" slope="0.00"/>
    </timestep>
    <timestep time="41.00">
        <vehicle id="background.2" x="218.58" y="-1.60" angle="90.00" type="human" speed="11.88" pos="218.58" lane="e0_0" slope="0.00"/>
    </timestep>
    <timestep time="41.50">
        <vehicle id="background.2" x="224.61" y="-1.60" angle="90.00" type="human" speed="12.06" pos="224.61" lane="e0_0" slope="0.00"/>
    </timestep>
    <timestep time="42.00">
        <vehicle id="background.2" x="230.51" y="-1.60" angle="90.00" type="human" speed="11.80" pos="230.51" lane="e0_0" slope="0.00"/>
    </timestep>
    <timestep time="42.50">
        <vehicle id="background.2" x="236.32" y="-1.60" angle="90.00" type="human" speed="11.63" pos="236.32" lane="e0_0" slope="0.00"/>
    </timestep>
    <timestep time="43.00">
        <vehicle id="background.2" x="242.15" y="-1.60" angle="90.00" type="human" speed="11.65" pos="242.15" lane="e0_0" slope="0.00"/>
    </timestep>
    <timestep time="43.50">
        <vehicle id="background.2" x="248.07" y="-1.60" angle="90.00" type="human" speed="11.83" pos="248.07" lane="e0_0" slope="0.00"/>
    </timestep>
    <timestep time="44.00">
        <vehicle id="background.2" x="253.88" y="-1.60" angle="90.00" type="human" speed="11.62" pos="253.88" lane="e0_0" slope="0.00"/>
    </timestep>
    <timestep time="44.50">
        <vehicle id="background.2" x="259.84" y="-1.60" angle="90.00" type="human" speed="11.92" pos="259.84" lane="e0_0" slope="0.00"/>
    </timestep>
    <timestep time="45.00">
        <vehicle id="background.2" x="265.70" y="-1.60" angle="90.00" type="human" speed="11.72" pos="265.70" lane="e0_0" slope="0.00"/>
    </timestep>
    <timestep time="45.50">
        <vehicle id="background.2" x="271.53" y="-1.60" angle="90.00" type="human" speed="11.65" pos="271.53" lane="e0_0" slope="0.00"/>
    </timestep>
    <timestep time="46.00">
        <vehicle id="background.2" x="277.47" y="-1.60" angle="90.00" type="human" speed="11.90" pos="277.47" lane="e0_0" slope="0.00"/>
    </timestep>
    <timestep time="46.50">
        <vehicle id="background.2" x="283.50" y="-1.60" angle="90.00" type="human" speed="12.05" pos="283.50" lane="e0_0" slope="0.00"/>
    </timestep>
    <timestep time="47.00">
        <vehicle id="background.2" x="288.68" y="-1.60" angle="90.00" type="human" speed="10.35" pos="288.68" lane="e0_0" slope="0.00"/>
    </timestep>
    <timestep time="47.50">
        <vehicle id="background.2" x="292.85" y="-1.60" angle="90.00" type="human" speed="8.36" pos="292.85" lane="e0_0" slope="0.00"/>
    </timestep>
    <timestep time="48.00">
        <vehicle id="background.2" x="295.91" y="-1.60" angle="90.00" type="human" speed="6.11" pos="295.91" lane="e0_0" slope="0.00"/>
        <vehicle id="background.3" x="5.10" y="-1.60" angle="90.00" type="human" speed="13.20" pos="5.10" lane="e0_0" slope="0.00"/>
    </timestep>
    <timestep time="48.50">
        <vehicle id="background.2" x="297.96" y="-1.60" angle="90.00" type="human" speed="4.10" pos="297.96" lane="e0_0" slope="0.00"/>
        <vehicle id="background.3" x="11.61" y="-1.60" angle="90.00" type="human" speed="13.01" pos="11.61" lane="e0_0" slope="0.00"/>
    </timestep>
    <timestep time="49.00">
        <vehicle id="background.2" x="298.97" y="-1.60" angle="90.00" type="human" speed="2.02" pos="298.97" lane="e0_0" slope="0.00"/>
        <vehicle id="background.3" x="18.06" y="-1.60" angle="90.00" type="human" speed="12.91" pos="18.06" lane="e0_0" slope="0.00"/>
        <vehicle id="background.4" x="5.10" y="-1.60" angle="90.00" type="human" speed="10.70" pos="5.10" lane="e0_0" slope="0.00"/>
    </timestep>
    <timestep time="49.50">
        <vehicle id="background.2" x="299.00" y="-1.60" angle="90.00" type="human" speed="0.05" pos="299.00" lane="e0_0" slope="0.00"/>
        <vehicle id="background.3" x="24.50" y="-1.60" angle="90.00" type="human" speed="12.89" pos="24.50" lane="e0_0" slope="0.00"/>
        <vehicle id="background.4" x="10.38" y="-1.60" angle="90.00" type="human" speed="10.56" pos="10.38" lane="e0_0" slope="0.00"/>
    </timestep>
    <timestep time="50.00">
        <vehicle id="background.2" x="299.00" y="-1.60" angle="90.00" type="human" speed="0.00" pos="299.00" lane="e0_0" slope="0.00"/>
        <vehicle id="background.3" x="31.07" y="-1.60" angle="90.00" type="human" speed="13.14" pos="31.07" lane="e0_0" slope="0.00"/>
        <vehicle id="background.4" x="15.75" y="-1.60" angle="90.00" type="human" speed="10.74" pos="15.75" lane="e0_0" slope="0.00"/>
    </timestep>
    <timestep time="50.50">
        <vehicle id="background.2" x="299.00" y="-1.60" angle="90.00" type="human" speed="0.00" pos="299.00" lane="e0_0" slope="0.00"/>
        <vehicle id="background.3" x="37.53" y="-1.60" angle="90.00" type="human" speed="12.91" pos="37.53" lane="e0_0" slope="0.00"/>
        <vehicle id="background.4" x="21.55" y="-1.60" angle="90.00" type="human" speed="11.60" pos="21.55" lane="e0_0" slope="0.00"/>
    </timestep>
    <timestep time="51.00">
        <vehicle id="background.2" x="299.00" y="-1.60" angle="90.00" type="human" speed="0.00" pos="299.00" lane="e0_0" slope="0.00"/>
        <vehicle id="background.3" x="44.06" y="-1.60" angle="90.00" type="human" speed="13.07" pos="44.06" lane="e0_0" slope="0.00"/>
        <vehicle id="background.4" x="27.27" y="-1.60" angle="90.00" type="human" speed="11.45" pos="27.27" lane="e0_0" slope="0.00"/>
    </timestep>
    <timestep time="51.50">
        <vehicle id="background.2" x="299.00" y="-1.60" angle="90.00" type="human" speed="0.00" pos="299.00" lane="e0_0" slope="0.00"/>
        <vehicle id="background.3" x="50.56" y="-1.60" angle="90.00" type="human" speed="12.99" pos="50.56" lane="e0_0" slope="0.00"/>
        <vehicle id="background.4" x="33.24" y="-1.60" angle="90.00" type="human" speed="11.94" pos="33.24" lane="e0_0" slope="0.00"/>
    </timestep>
    <timestep time="52.00">
        <vehicle id="background.2" x="299.00" y="-1.60" angle="90.00" type="human" speed="0.00" pos="299.00" lane="e0_0" slope="0.00"/>