<?xml version="1.0" encoding="UTF-8"?>

<!-- generated on 2026-05-13 21:23:49 by Eclipse SUMO sumo Version 1.24.0
<sumoConfiguration xmlns:xsi="http://www.w3.org/2001/XMLSchema-instance" xsi:noNamespaceSchemaLocation="http://sumo.dlr.de/xsd/sumoConfiguration.xsd">

    <input>
        <net-file value="scenarios/simple_arterial/simple_arterial.net.xml"/>
        <route-files value="scenarios/simple_arterial/simple_arterial.rou.xml"/>
        <additional-files value="scenarios/simple_arterial/simple_arterial.tls.xml"/>
    </input>

    <output>
        <fcd-output value="runs/fcd_expert_default/episode_00004_seed_46.fcd.xml"/>
    </output>

    <time>
        <begin value="0"/>
        <end value="900"/>
        <step-length value="0.5"/>
    </time>

    <report>
        <no-warnings value="true"/>
    </report>

    <traci_server>
        <remote-port value="23821"/>
    </traci_server>

    <random_number>
        <seed value="46"/>
    </random_number>

</sumoConfiguration>
-->

<fcd-export xmlns:xsi="http://www.w3.org/2001/XMLSchema-instance" xsi:noNamespaceSchemaLocation="http://sumo.dlr.de/xsd/fcd_file.xsd">
    <timestep time="0.00"/>
    <timestep time="0.50"/>
    <timestep time="1.00"/>
    <timestep time="1.50"/>
    <timestep time="2.00"/>
    <timestep time="2.50"/>
    <timestep time="3.00"/>
    <timestep time="3.50"/>
    <timestep time="4.00"/>
    <timestep time="4.50"/>
    <timestep time="5.00"/>
    <timestep time="5.50"/>
    <timestep time="6.00"/>
    <timestep time="6.50"/>
    <timestep time="7.00"/>
    <timestep time="7.50"/>
    <timestep time="8.00"/>
    <timestep time="8.50"/>
    <timestep time="9.00"/>
    <timestep time="9.50"/>
    <timestep time="10.00"/>
    <timestep time="10.50"/>
    <timestep time="11.00"/>
    <timestep time="11.50"/>
    <timestep time="12.00"/>
    <timestep time="12.50"/>
    <timestep time="13.00"/>
    <timestep time="13.50"/>
    <timestep time="14.00"/>
    <timestep time="14.50"/>
    <timestep time="15.00"/>
    <timestep time="15.50"/>
    <timestep time="16.00"/>
    <timestep time="16.50"/>
    <timestep time="17.00"/>
    <timestep time="17.50"/>
    <timestep time="18.00"/>
    <timestep time="18.50"/>
    <timestep time="19.00"/>
    <timestep time="19.50"/>
    <timestep time="20.00"/>
    <timestep time="20.50"/>
    <timestep time="21.00"/>
    <timestep time="21.50"/>
    <timestep time="22.00"/>
    <timestep time="22.50"/>
    <timestep time="23.00"/>
    <timestep time="23.50"/>
    <timestep time="24.00"/>
    <timestep time="24.50"/>
    <timestep time="25.00"/>
    <timestep time="25.50"/>
    <timestep time="26.00"/>
    <timestep time="26.50"/>
    <timestep time="27.00"/>
    <timestep time="27.50"/>
    <timestep time="28.00"/>
    <timestep time="28.50"/>
    <timestep time="29.00"/>
    <timestep time="29.50"/>
    <timestep time="30.00"/>
    <timestep time="30.50"/>
    <timestep time="31.00"/>
    <timestep time="31.50"/>
    <timestep time="32.00"/>
    <timestep time="32.50"/>
    <timestep time="33.00"/>
    <timestep time="33.50"/>
    <timestep time="34.00"/>
    <timestep time="34.50"/>
    <timestep time="35.00"/>
    <timestep time="35.50"/>
    <timestep time="36.00"/>
    <timestep time="36.50"/>
    <timestep time="37.00"/>
    <timestep time="37.50"/>
    <timestep time="38.00"/>
    <timestep time="38.50"/>
    <timestep time="39.00"/>
    <timestep time="39.50"/>
    <timestep time="40.00">
        <vehicle id="background.0" x="5.10" y="-1.60" angle="90.00" type="human" speed="13.89" pos="5.10" lane="e0_0" slope="0.00"/>
    </timestep>
    <timestep time="40.50">
        <vehicle id="background.0" x="12.02" y="-1.60" angle="90.00" type="human" speed="13.83" pos="12.02" lane="e0_0" slope="0.00"/>
    </timestep>
    <timestep time="41.00">
        <vehicle id="background.0" x="18.75" y="-1.60" angle="90.00" type="human" speed="13.46" pos="18.75" lane="e0_0" slope="0.00"/>
    </timestep>
    <timestep time="41.50">
        <vehicle id="background.0" x="25.45" y="-1.60" angle="90.00" type="human" speed="13.40" pos="25.45" lane="e0_0" slope="0.00"/>
    </timestep>
    <timestep time="42.00">
        <vehicle id="background.0" x="32.17" y="-1.60" angle="90.00" type="human" speed="13.44" pos="32.17" lane="e0_0" slope="0.00"/>
    </timestep>
    <timestep time="42.50">
        <vehicle id="background.0" x="38.93" y="-1.60" angle="90.00" type="human" speed="13.53" pos="38.93" lane="e0_0" slope="0.00"/>
    </timestep>
    <timestep time="43.00">
        <vehicle id="background.0" x="45.67" y="-1.60" angle="90.00" type="human" speed="13.48" pos="45.67" lane="e0_0" slope="0.00"/>
    </timestep>
    <timestep time="43.50">
        <vehicle id="background.0" x="52.53" y="-1.60" angle="90.00" type="human" speed="13.71" pos="52.53" lane="e0_0" slope="0.00"/>
    </timestep>
    <timestep time="44.00">
        <vehicle id="background.0" x="59.38" y="-1.60" angle="90.00" type="human" speed="13.70" pos="59.38" lane="e0_0" slope="0.00"/>
    </timestep>
    <timestep time="44.50">
        <vehicle id="background.0" x="66.15" y="-1.60" angle="90.00" type="human" speed="13.54" pos="66.15" lane="e0_0" slope="0.00"/>
    </timestep>
    <timestep time="45.00">
        <vehicle id="background.0" x="72.85" y="-1.60" angle="90.00" type="human" speed="13.40" pos="72.85" lane="e0_0" slope="0.00"/>
    </timestep>
    <timestep time="45.50">
        <vehicle id="background.0" x="79.59" y="-1.60" angle="90.00" type="human" speed="13.49" pos="79.59" lane="e0_0" slope="0.00"/>
    </timestep>
    <timestep time="46.00">
        <vehicle id="background.0" x="86.30" y="-1.60" angle="90.00" type="human" speed="13.42" pos="86.30" lane="e0_0" slope="0.00"/>
    </timestep>
    <timestep time="46.50">
        <vehicle id="background.0" x="93.09" y="-1.60" angle="90.00" type="human" speed="13.57" pos="93.09" lane="e0_0" slope="0.00"/>
    </timestep>
    <timestep time="47.00">
        <vehicle id="background.0" x="99.93" y="-1.60" angle="90.00" type="human" speed="13.69" pos="99.93" lane="e0_0" slope="0.00"/>
    </timestep>
    <timestep time="47.50">
        <vehicle id="background.0" x="106.78" y="-1.60" angle="90.00" type="human" speed="13.68" pos="106.78" lane="e0_0" slope="0.00"/>
    </timestep>
    <timestep time="48.00">
        <vehicle id="background.0" x="113.64" y="-1.60" angle="90.00" type="human" speed="13.74" pos="113.64" lane="e0_0" slope="0.00"/>
    </timestep>
    <timestep time="48.50">
        <vehicle id="background.0" x="120.41" y="-1.60" angle="90.00" type="human" speed="13.54" pos="120.41" lane="e0_0" slope="0.00"/>
    </timestep>
    <timestep time="49.00">
        <vehicle id="background.0" x="127.30" y="-1.60" angle="90.00" type="human" speed="13.77" pos="127.30" lane="e0_0" slope="0.00"/>
    </timestep>
    <timestep time="49.50">
        <vehicle id="background.0" x="134.18" y="-1.60" angle="90.00" type="human" speed="13.77" pos="134.18" lane="e0_0" slope="0.00"/>
    </timestep>
    <timestep time="50.00">
        <vehicle id="background.0" x="140.97" y="-1.60" angle="90.00" type="human" speed="13.57" pos="140.97" lane="e0_0" slope="0.00"/>
        <vehicle id="background.1" x="5.10" y="-1.60" angle="90.00" type="human" speed="13.89" pos="5.10" lane="e0_0" slope="0.00"/>
    </timestep>
    <timestep time="50.50">
        <vehicle id="background.0" x="147.85" y="-1.60" angle="90.00" type="human" speed="13.76" pos="147.85" lane="e0_0" slope="0.00"/>
        <vehicle id="background.1" x="11.92" y="-1.60" angle="90.00" type="human" speed="13.63" pos="11.92" lane="e0_0" slope="0.00"/>
    </timestep>
    <timestep time="51.00">
        <vehicle id="background.0" x="154.79" y="-1.60" angle="90.00" type="human" speed="13.88" pos="154.79" lane="e0_0" slope="0.00"/>
        <vehicle id="background.1" x="18.76" y="-1.60" angle="90.00" type="human" speed="13.69" pos="18.76" lane="e0_0" slope="0.00"/>
        <vehicle id="background.2" x="5.10" y="-1.60" angle="90.00" type="human" speed="11.57" pos="5.10" lane="e0_0" slope="0.00"/>
    </timestep>
    <timestep time="51.50">
        <vehicle id="background.0" x="161.71" y="-1.60" angle="90.00" type="human" speed="13.84" pos="161.71" lane="e0_0" slope="0.00"/>
        <vehicle id="background.1" x="25.62" y="-1.60" angle="90.00" type="human" speed="13.71" pos="25.62" lane="e0_0" slope="0.00"/>
        <vehicle id="background.2" x="10.81" y="-1.60" angle="90.00" type="human" speed="11.42" pos="10.81" lane="e0_0" slope="0.00"/>
    </timestep>
    <timestep time="52.00">
        <vehicle id="background.0" x="168.46" y="-1.60" angle="90.00" type="human" speed="13.51" pos="168.46" lane="e0_0" slope="0.00"/>
        <vehicle id="background.1" x="32.40" y="-1.60" angle="90.00" type="human" speed="13.57" pos="32.40" lane="e0_0" slope="0.00"/>
        <vehicle id="background.2" x="16.75" y="-1.60" angle="90.00" type="human" speed="11.89" pos="16.75" lane="e0_0" slope="0.00"/>
    </timestep>
    <timestep time="52.50">
        <vehicle id="background.0" x="175.33" y="-1.60" angle="90.00" type="human" speed="13.73" pos="175.33" lane="e0_0" slope="0.00"/>
        <vehicle id="background.1" x="39.16" y="-1.60" angle="90.00" type="human" speed="13.52" pos="39.16" lane="e0_0" slope="0.00"/>
        <vehicle id="background.2" x="22.72" y="-1.60" angle="90.00" type="human" speed="11.94" pos="22.72" lane="e0_0" slope="0.00"/>
    </timestep>
    <timestep time="53.00">
        <vehicle id="background.0" x="182.08" y="-1.60" angle="90.00" type="human" speed="13.51" pos="182.08" lane="e0_0" slope="0.00"/>
        <vehicle id="background.1" x="45.88" y="-1.60" angle="90.00" type="human" speed="13.43" pos="45.88" lane="e0_0" slope="0.00"/>
        <vehicle id="background.2" x="28.76" y="-1.60" angle="90.00" type="human" speed="12.07" pos="28.76" lane="e0_0" slope="0.00"/>
    </timestep>
    <timestep time="53.50">
        <vehicle id="background.0" x="188.96" y="-1.60" angle="90.00" type="human" speed="13.75" pos="188.96" lane="e0_0" slope="0.00"/>
        <vehicle id="background.1" x="52.65" y="-1.60" angle="90.00" type="human" speed="13.54" pos="52.65" lane="e0_0" slope="0.00"/>
        <vehicle id="background.2" x="34.86" y="-1.60" angle="90.00" type="human" speed="12.21" pos="34.86" lane="e0_0" slope="0.00"/>
    </timestep>
    <timestep time="54.00">
        <vehicle id="background.0" x="195.78" y="-1.60" angle="90.00" type="human" speed="13.64" pos="195.78" lane="e0_0" slope="0.00"/>
        <vehicle id="background.1" x="59.36" y="-1.60" angle="90.00" type="human" speed="13.41" pos="59.36" lane="e0_0" slope="0.00"/>
        <vehicle id="background.2" x="40.97" y="-1.60" angle="90.00" type="human" speed="12.22" pos="40.97" lane="e0_0" slope="0.00"/>
    </timestep>
    <timestep time="54.50">
        <vehicle id="background.0" x="202.69" y="-1.60" angle="90.00" type="human" speed="13.83" pos="202.69" lane="e0_0" slope="0.00"/>
        <vehicle id="background.1" x="66.07" y="-1.60" angle="90.00" type="human" speed="13.43" pos="66.07" lane="e0_0" slope="0.00"/>
        <vehicle id="background.2" x="47.13" y="-1.60" angle="90.00" type="human" speed="12.32" pos="47.13" lane="e0_0" slope="0.00"/>
    </timestep>
    <timestep time="55.00">
        <vehicle id="background.0" x="209.54" y="-1.60" angle="90.00" type="human" speed="13.71" pos="209.54" lane="e0_0" slope="0.00"/>
        <vehicle id="background.1" x="73.02" y="-1.60" angle="90.00" type="human" speed="13.89" pos="73.02" lane="e0_0" slope="0.00"/>
        <vehicle id="background.2" x="53.43" y="-1.60" angle="90.00" type="human" speed="12.60" pos="53.43" lane="e0_0" slope="0.00"/>
    </timestep>
    <timestep time="55.50">
        <vehicle id="background.0" x="216.27" y="-1.60" angle="90.00" type="human" speed="13.46" pos="216.27" lane="e0_0" slope="0.00"/>
        <vehicle id="background.1" x="79.77" y="-1.60" angle="90.00" type="human" speed="13.51" pos="79.77" lane="e0_0" slope="0.00"/>
        <vehicle id="background.2" x="59.97" y="-1.60" angle="90.00" type="human" speed="13.08" pos="59.97" lane="e0_0" slope="0.00"/>
    </timestep>
    <timestep time="56.00">
        <vehicle id="background.0" x="223.19" y="-1.60" angle="90.00" type="human" speed="13.83" pos="223.19" lane="e0_0" slope="0.00"/>
        <vehicle id="background.1" x="86.58" y="-1.60" angle="90.00" type="human" speed="13.61" pos="86.58" lane="e0_0" slope="0.00"/>
        <vehicle id="background.2" x="66.42" y="-1.60" angle="90.00" type="human" speed="12.89" pos="66.42" lane="e0_0" slope="0.00"/>
    </timestep>
    <timestep time="56.50">
        <vehicle id="background.0" x="229.90" y="-1.60" angle="90.00" type="human" speed="13.42" pos="229.90" lane="e0_0" slope="0.00"/>
        <vehicle id="background.1" x="93.30" y="-1.60" angle="90.00" type="human" speed="13.45" pos="93.30" lane="e0_0" slope="0.00"/>
        <vehicle id="background.2" x="72.97" y="-1.60" angle="90.00" type="human" speed="13.10" pos="72.97" lane="e0_0" slope="0.00"/>
        <vehicle id="background.3" x="5.10" y="-1.60" angle="90.00" type="human" speed="13.89" pos="5.10" lane="e0_0" slope="0.00"/>
    </timestep>
    <timestep time="57.00">
        <vehicle id="background.0" x="236.72" y="-1.60" angle="90.00" type="human" speed="13.65" pos="236.72" lane="e0_0" slope="0.00"/>
        <vehicle id="background.1" x="100.20" y="-1.60" angle="90.00" type="human" speed="13.80" pos="100.20" lane="e0_0" slope="0.00"/>
        <vehicle id="background.2" x="79.38" y="-1.60" angle="90.00" type="human" speed="12.82" pos="79.38" lane="e0_0" slope="0.00"/>
        <vehicle id="background.3" x="11.91" y="-1.60" angle="90.00" type="human" speed="13.62" pos="11.91" lane="e0_0" slope="0.00"/>
    </timestep>
    <timestep time="57.50">
        <vehicle id="background.0" x="243.44" y="-1.60" angle="90.00" type="human" speed="13.44" pos="243.44" lane="e0_0" slope="0.00"/>
        <vehicle id="background.1" x="107.07" y="-1.60" angle="90.00" type="human" speed="13.74" pos="107.07" lane="e0_0" slope="0.00"/>
        <vehicle id="background.2" x="86.20" y="-1.60" angle="90.00" type="human" speed="13.64" pos="86.20" lane="e0_0" slope="0.00"/>
        <vehicle id="background.3" x="18.85" y="-1.60" angle="90.00" type="human" speed="13.88" pos="18.85" lane="e0_0" slope="0.00"/>
        <vehicle id="background.4" x="5.10" y="-1.60" angle="90.00" type="human" speed="11.76" pos="5.10" lane="e0_0" slope="0.00"/>
    </timestep>
    <timestep time="58.00">
        <vehicle id="background.0" x="250.27" y="-1.60" angle="90.00" type="human" speed="13.66" pos="250.27" lane="e0_0" slope="0.00"/>
        <vehicle id="background.1" x="113.80" y="-1.60" angle="90.00" type="human" speed="13.45" pos="113.80" lane="e0_0" slope="0.00"/>
        <vehicle id="background.2" x="92.94" y="-1.60" angle="90.00" type="human" speed="13.48" pos="92.94" lane="e0_0" slope="0.00"/>
        <vehicle id="background.3" x="25.63" y="-1.60" angle="90.00" type="human" speed="13.56" pos="25.63" lane="e0_0" slope="0.00"/>
        <vehicle id="background.4" x="10.77" y="-1.60" angle="90.00" type="human" speed="11.35" pos="10.77" lane="e0_0" slope="0.00"/>
    </timestep>
    <timestep time="58.50">
        <vehicle id="background.0" x="256.98" y="-1.60" angle="90.00" type="human" speed="13.42" pos="256.98" lane="e0_0" slope="0.00"/>
        <vehicle id="background.1" x="120.53" y="-1.60" angle="90.00" type="human" speed="13.47" pos="120.53" lane="e0_0" slope="0.00"/>
        <vehicle id="background.2" x="99.46" y="-1.60" angle="90.00" type="human" speed="13.05" pos="99.46" lane="e0_0" slope="0.00"/>
        <vehicle id="background.3" x="32.49" y="-1.60" angle="90.00" type="human" speed="13.71" pos="32.49" lane="e0_0" slope="0.00"/>
        <vehicle id="background.4" x="16.61" y="-1.60" angle="90.00" type="human" speed="11.67" pos="16.61" lane="e0_0" slope="0.00"/>
    </timestep>
    <timestep time="59.00">
        <vehicle id="background.0" x="263.69" y="-1.60" angle="90.00" type="human" speed="13.43" pos="263.69" lane="e0_0" slope="0.00"/>
        <vehicle id="background.1" x="127.39" y="-1.60" angle="90.00" type="human" speed="13.71" pos="127.39" lane="e0_0" slope="0.00"/>
        <vehicle id="background.2" x="106.13" y="-1.60" angle="90.00" type="human" speed="13.34" pos="106.13" lane="e0_0" slope="0.00"/>
        <vehicle id="background.3" x="39.30" y="-1.60" angle="90.00" type="human" speed="13.63" pos="39.30" lane="e0_0" slope="0.00"/>
        <vehicle id="background.4" x="22.58" y="-1.60" angle="90.00" type="human" speed="11.96" pos="22.58" lane="e0_0" slope="0.00"/>
    </timestep>
    <timestep time="59.50">
        <vehicle id="background.0" x="270.50" y="-1.60" angle="90.00" type="human" speed="13.62" pos="270.50" lane="e0_0" slope="0.00"/>
        <vehicle id="background.1" x="134.26" y="-1.60" angle="90.00" type="human" speed="13.74" pos="134.26" lane="e0_0" slope="0.00"/>
        <vehicle id="background.2" x="112.90" y="-1.60" angle="90.00" type="human" speed="13.53" pos="112.90" lane="e0_0" slope="0.00"/>
        <vehicle id="background.3" x="46.20" y="-1.60" angle="90.00" type="human" speed="13.80" pos="46.20" lane="e0_0" slope="0.00"/>
        <vehicle id="background.4" x="28.73" y="-1.60" angle="90.00" type="human" speed="12.30" pos="28.73" lane="e0_0" slope="0.00"/>
    </timestep>
    <timestep time="60.00">
        <vehicle id="background.0" x="277.26" y="-1.60" angle="90.00" type="human" speed="13.51" pos="277.26" lane="e0_0" slope="0.00"/>
        <vehicle id="background.1" x="141.11" y="-1.60" angle="90.00" type="human" speed="13.71" pos="141.11" lane="e0_0" slope="0.00"/>
        <vehicle id="background.2" x="119.67" y="-1.60" angle="90.00" type="human" speed="13.54" pos="119.67" lane="e0_0" slope="0.00"/>
        <vehicle id="background.3" x="53.11" y="-1.60" angle="90.00" type="human" speed="13.82" pos="53.11" lane="e0_0" slope="0.00"/>
        <vehicle id="background.4" x="35.07" y="-1.60" angle="90.00" type="human" speed="12.67" pos="35.07" lane="e0_0" slope="0.00"/>
    </timestep>
    <timestep time="60.50">
        <vehicle id="background.0" x="283.60" y="-1.60" angle="90.00" type="human" speed="12.68" pos="283.60" lane="e0_0" slope="0.00"/>
        <vehicle id="background.1" x="148.03" y="-1.60" angle="90.00" type="human" speed="13.84" pos="148.03" lane="e0_0" slope="0.00"/>
        <vehicle id="background.2" x="126.38" y="-1.60" angle="90.00" type="human" speed="13.42" pos="126.38" lane="e0_0" slope="0.00"/>
        <vehicle id="background.3" x="60.04" y="-1.60" angle="90.00" type="human" speed="13.85" pos="60.04" lane="e0_0" slope="0.00"/>
        <vehicle id="background.4" x="41.29" y="-1.60" angle="90.00" type="human" speed="12.45" pos="41.29" lane="e0_0" slope="0.00"/>
    </timestep>
    <timestep time="61.00">
        <vehicle id="background.0" x="288.82" y="-1.60" angle="90.00" type="human" speed="10.44" pos="288.82" lane="e0_0" slope="0.00"/>
        <vehicle id="background.1" x="154.94" y="-1.60" angle="90.00" type="human" speed="13.82" pos="154.94" lane="e0_0" slope="0.00"/>
        <vehicle id="background.2" x="133.12" y="-1.60" angle="90.00" type="human" speed="13.48" pos="133.12" lane="e0_0" slope="0.00"/>
        <vehicle id="background.3" x="66.85" y="-1.60" angle="90.00" type="human" speed="13.63" pos="66.85" lane="e0_0" slope="0.00"/>
        <vehicle id="background.4" x="47.78" y="-1.60" angle="90.00" type="human" speed="12.97" pos="47.78" lane="e0_0" slope="0.00"/>
    </timestep>
    <timestep time="61.50">
        <vehicle id="background.0" x="292.92" y="-1.60" angle="90.00" type="human" speed="8.20" pos="292.92" lane="e0_0" slope="0.00"/>
        <vehicle id="background.1" x="161.69" y="-1.60" angle="90.00" type="human" speed="13.49" pos="161.69" lane="e0_0" slope="0.00"/>
        <vehicle id="background.2" x="139.88" y="-1.60" angle="90.00" type="human" speed="13.51" pos="139.88" lane="e0_0" slope="0.00"/>
        <vehicle id="background.3" x="73.55" y="-1.60" angle="90.00" type="human" speed="13.39" pos="73.55" lane="e0_0" slope="0.00"/>
        <vehicle id="background.4" x="54.27" y="-1.60" angle="90.00" type="human" speed="12.98" pos="54.27" lane="e0_0" slope="0.00"/>
        <vehicle id="background.5" x="5.10" y="-1.60" angle="90.00" type="human" speed="12.28" pos="5.10" lane="e0_0" slope="0.00"/>
    </timestep>
    <timestep time="62.00">
        <vehicle id="background.0" x="295.90" y="-1.60" angle="90.00" type="human" speed="5.95" pos="295.90" lane="e0_0" slope="0.00"/>
        <vehicle id="background.1" x="168.48" y="-1.60" angle="90.00" type="human" speed="13.59" pos="168.48" lane="e0_0" slope="0.00"/>
        <vehicle id="background.2" x="146.50" y="-1.60" angle="90.00" type="human" speed="13.24" pos="146.50" lane="e0_0" slope="0.00"/>
        <vehicle id="background.3" x="80.47" y="-1.60" angle="90.00" type="human" speed="13.84" pos="80.47" lane="e0_0" slope="0.00"/>
        <vehicle id="background.4" x="60.66" y="-1.60" angle="90.00" type="human" speed="12.78" pos="60.66" lane="e0_0" slope="0.00"/>
        <vehicle id="background.5" x="11.10" y="-1.60" angle="90.00" type="human" speed="11.99" pos="11.10" lane="e0_0" slope="0.00"/>
    </timestep>
    <timestep time="62.50">
        <vehicle id="background.0" x="297.76" y="-1.60" angle="90.00" type="human" speed="3.74" pos="297.76" lane="e0_0" slope="0.00"/>
        <vehicle id="background.1" x="175.33" y="-1.60" angle="90.00" type="human" speed="13.70" pos="175.33" lane="e0_0" slope="0.00"/>
        <vehicle id="background.2" x="153.14" y="-1.60" angle="90.00" type="human" speed="13.29" pos="153.14" lane="e0_0" slope="0.00"/>
        <vehicle id="background.3" x="87.39" y="-1.60" angle="90.00" type="human" speed="13.85" pos="87.39" lane="e0_0" slope="0.00"/>
        <vehicle id="background.4" x="67.20" y="-1.60" angle="90.00" type="human" speed="13.08" pos="67.20" lane="e0_0" slope="0.00"/>
        <vehicle id="background.5" x="17.10" y="-1.60" angle="90.00" type="human" speed="12.00" pos="17.10" lane="e0_0" slope="0.00"/>
    </timestep>
    <timestep time="63.00">
        <vehicle id="background.0" x="298.77" y="-1.60" angle="90.00" type="human" speed="2.01" pos="298.77" lane="e0_0" slope="0.00"/>
        <vehicle id="background.1" x="182.11" y="-1.60" angle="90.00" type="human" speed="13.57" pos="182.11" lane="e0_0" slope="0.00"/>
        <vehicle id="background.2" x="159.90" y="-1.60" angle="90.00" type="human" speed="13.52" pos="159.90" lane="e0_0" slope="0.00"/>
        <vehicle id="background.3" x="94.17" y="-1.60" angle="90.00" type="human" speed="13.56" pos="94.17" lane="e0_0" slope="0.00"/>
        <vehicle id="background.4" x="73.93" y="-1.60" angle="90.00" type="human" speed="13.46" pos="73.93" lane="e0_0" slope="0.00"/>
        <vehicle id="background.5" x="23.19" y="-1.60" angle="90.00" type="human" speed="12.18" pos="23.19" lane="e0_0" slope="0.00"/>
    </timestep>
    <timestep time="63.50">
        <vehicle id="background.0" x="298.95" y="-1.60" angle="90.00" type="human" speed="0.35" pos="298.95" lane="e0_0" slope="0.00"/>
        <vehicle id="background.1" x="188.82" y="-1.60" angle="90.00" type="human" speed="13.41" pos="188.82" lane="e0_0" slope="0.00"/>
        <vehicle id="background.2" x="166.50" y="-1.60" angle="90.00" type="human" speed="13.20" pos="166.50" lane="e0_0" slope="0.00"/>
        <vehicle id="background.3" x="101.10" y="-1.60" angle="90.00" type="human" speed="13.86" pos="101.10" lane="e0_0" slope="0.00"/>
        <vehicle id="background.4" x="80.49" y="-1.60" angle="90.00" type="human" speed="13.13" pos="80.49" lane="e0_0" slope="0.00"/>
        <vehicle id="background.5" x="29.11" y="-1.60" angle="90.00" type="human" speed="11.84" pos="29.11" lane="e0_0" slope="0.00"/>
    </timestep>
    <timestep time="64.00">
        <vehicle id="background.0" x="299.00" y="-1.60" angle="90.00" type="human" speed="0.10" pos="299.00" lane="e0_0" slope="0.00"/>
        <vehicle id="background.1" x="195.57" y="-1.60" angle="90.00" type="human" speed="13.50" pos="195.57" lane="e0_0" slope="0.00"/>
        <vehicle id="background.2" x="173.17" y="-1.60" angle="90.00" type="human" speed="13.34" pos="173.17" lane="e0_0" slope="0.00"/>
        <vehicle id="background.3" x="107.99" y="-1.60" angle="90.00" type="human" speed="13.76" pos="107.99" lane="e0_0" slope="0.00"/>
        <vehicle id="background.4" x="87.08" y="-1.60" angle="90.00" type="human" speed="13.19" pos="87.08" lane="e0_0" slope="0.00"/>
        <vehicle id="background.5" x="35.02" y="-1.60" angle="90.00" type="human" speed="11.82" pos="35.02" lane="e0_0" slope="0.00"/>
        <vehicle id="background.6" x="5.10" y="-1.60" angle="90.00" type="human" speed="13.54" pos="5.10" lane="e0_0" slope="0.00"/>
    </timestep>
    <timestep time="64.50">
        <vehicle id="background.0" x="299.00" y="-1.60" angle="90.00" type="human" speed="0.00" pos="299.00" lane="e0_0" slope="0.00"/>
        <vehicle id="background.1" x="202.40" y="-1.60" angle="90.00" type="human" speed="13.67" pos="202.40" lane="e0_0" slope="0.00"/>
        <vehicle id="background.2" x="179.98" y="-1.60" angle="90.00" type="human" speed="13.63" pos="179.98" lane="e0_0" slope="0.00"/>
        <vehicle id="background.3" x="114.84" y="-1.60" angle="90.00" type="human" speed="13.70" pos="114.84" lane="e0_0" slope="0.00"/>
        <vehicle id="background.4" x="93.89" y="-1.60" angle="90.00" type="human" speed="13.61" pos="93.89" lane="e0_0" slope="0.00"/>
        <vehicle id="background.5" x="40.93" y="-1.60" angle="90.00" type="human" speed="11.83" pos="40.93" lane="e0_0" slope="0.00"/>
        <vehicle id="background.6" x="11.71" y="-1.60" angle="90.00" type="human" speed="13.22" pos="11.71" lane="e0_0" slope="0.00"/>
    </timestep>
    <timestep time="65.00">
        <vehicle id="background.0" x="299.00" y="-1.60" angle="90.00" type="human" speed="0.00" pos="299.00" lane="e0_0" slope="0.00"/>
        <vehicle id="background.1" x="209.30" y="-1.60" angle="90.00" type="human" speed="13.80" pos="209.30" lane="e0_0" slope="0.00"/>
        <vehicle id="background.2" x="186.62" y="-1.60" angle="90.00" type="human" speed="13.27" pos="186.62" lane="e0_0" slope="0.00"/>
        <vehicle id="background.3" x="121.69" y="-1.60" angle="90.00" type="human" speed="13.70" pos="121.69" lane="e0_0" slope="0.00"/>
        <vehicle id="background.4" x="100.49" y="-1.60" angle="90.00" type="human" speed="13.20" pos="100.49" lane="e0_0" slope="0.00"/>
        <vehicle id="background.5" x="46.83" y="-1.60" angle="90.00" type="human" speed="11.80" pos="46.83" lane="e0_0" slope="0.00"/>
        <vehicle id="background.6" x="18.36" y="-1.60" angle="90.00" type="human" speed="13.30" pos="18.36" lane="e0_0" slope="0.00"/>
    </timestep>
    <timestep time="65.50">
        <vehicle id="background.0" x="299.00" y="-1.60" angle="90.00" type="human" speed="0.00" pos="299.00" lane="e0_0" slope="0.00"/>
        <vehicle id="background.1" x="216.17" y="-1.60" angle="90.00" type="human" speed="13.74" pos="216.17" lane="e0_0" slope="0.00"/>
        <vehicle id="background.2" x="193.42" y="-1.60" angle="90.00" type="human" speed="13.59" pos="193.42" lane="e0_0" slope="0.00"/>
        <vehicle id="background.3" x="128.52" y="-1.60" angle="90.00" type="human" speed="13.67" pos="128.52" lane="e0_0" slope="0.00"/>
        <vehicle id="background.4" x="107.14" y="-1.60" angle="90.00" type="human" speed="13.30" pos="107.14" lane="e0_0" slope="0.00"/>
        <vehicle id="background.5" x="52.84" y="-1.60" angle="90.00" type="human" speed="12.01" pos="52.84" lane="e0_0" slope="0.00"/>
        <vehicle id="background.6" x="24.88" y="-1.60" angle="90.00" type="human" speed="13.05" pos="24.88" lane="e0_0" slope="0.00"/>
    </timestep>
    <timestep time="66.00">
        <vehicle id="background.0" x="299.00" y="-1.60" angle="90.00" type="human" speed="0.00" pos="299.00" lane="e0_0" slope="0.00"/>
        <vehicle id="background.1" x="223.04" y="-1.60" angle="90.00" type="human" speed="13.73" pos="223.04" lane="e0_0" slope="0.00"/>
        <vehicle id="background.2" x="200.11" y="-1.60" angle="90.00" type="human" speed="13.40" pos="200.11" lane="e0_0" slope="0.00"/>
        <vehicle id="background.3" x="135.29" y="-1.60" angle="90.00" type="human" speed="13.54" pos="135.29" lane="e0_0" slope="0.00"/>
        <vehicle id="background.4" x="113.75" y="-1.60" angle="90.00" type="human" speed="13.23" pos="113.75" lane="e0_0" slope="0.00"/>
        <vehicle id="background.5" x="58.83" y="-1.60" angle="90.00" type="human" speed="11.98" pos="58.83" lane="e0_0" slope="0.00"/>
        <vehicle id="background.6" x="31.50" y="-1.60" angle="90.00" type="human" speed="13.24" pos="31.50" lane="e0_0" slope="0.00"/>
    </timestep>
    <timestep time="66.50">
        <vehicle id="background.0" x="299.00" y="-1.60" angle="90.00" type="human" speed="0.00" pos="299.00" lane="e0_0" slope="0.00"/>
        <vehicle id="background.1" x="229.78" y="-1.60" angle="90.00" type="human" speed="13.47" pos="229.78" lane="e0_0" slope="0.00"/>
        <vehicle id="background.2" x="206.74" y="-1.60" angle="90.00" type="human" speed="13.25" pos="206.74" lane="e0_0" slope="0.00"/>
        <vehicle id="background.3" x="142.22" y="-1.60" angle="90.00" type="human" speed="13.85" pos="142.22" lane="e0_0" slope="0.00"/>
        <vehicle id="background.4" x="120.57" y="-1.60" angle="90.00" type="human" speed="13.63" pos="120.57" lane="e0_0" slope="0.00"/>
        <vehicle id="background.5" x="64.84" y="-1.60" angle="90.00" type="human" speed="12.03" pos="64.84" lane="e0_0" slope="0.00"/>
        <vehicle id="background.6" x="38.10" y="-1.60" angle="90.00" type="human" speed="13.20" pos="38.10" lane="e0_0" slope="0.00"/>
    </timestep>
    <timestep time="67.00">