<?xml version="1.0" encoding="UTF-8"?>

<!-- generated on 2026-05-14 17:03:57 by Eclipse SUMO sumo Version 1.24.0
<sumoConfiguration xmlns:xsi="http://www.w3.org/2001/XMLSchema-instance" xsi:noNamespaceSchemaLocation="http://sumo.dlr.de/xsd/sumoConfiguration.xsd">

    <input>
        <net-file value="scenarios/simple_arterial/simple_arterial.net.xml"/>
        <route-files value="scenarios/simple_arterial/simple_arterial.rou.xml"/>
        <additional-files value="scenarios/simple_arterial/simple_arterial.tls.xml"/>
    </input>

    <output>
        <fcd-output value="runs/fcd_expert_default/episode_00008_seed_50.fcd.xml"/>
    </output>

    <time>
        <begin value="0"/>
        <end value="900"/>
        <step-length value="0.5"/>
    </time>

    <report>
        <no-warnings value="true"/>
    </report>

    <traci_server>
        <remote-port value="24542"/>
    </traci_server>

    <random_number>
        <seed value="50"/>
    </random_number>

</sumoConfiguration>
-->

<fcd-export xmlns:xsi="http://www.w3.org/2001/XMLSchema-instance" xsi:noNamespaceSchemaLocation="http://sumo.dlr.de/xsd/fcd_file.xsd">
    <timestep time="0.00"/>
    <timestep time="0.50"/>
    <timestep time="1.00"/>
    <timestep time="1.50"/>
    <timestep time="2.00"/>
    <timestep time="2.50"/>
    <timestep time="3.00"/>
    <timestep time="3.50">
        <vehicle id="background.0" x="5.10" y="-1.60" angle="90.00" type="human" speed="13.87" pos="5.10" lane="e0_0" slope="0.00"/>
    </timestep>
    <timestep time="4.00">
        <vehicle id="background.0" x="11.86" y="-1.60" angle="90.00" type="human" speed="13.53" pos="11.86" lane="e0_0" slope="0.00"/>
    </timestep>
    <timestep time="4.50">
        <vehicle id="background.0" x="18.72" y="-1.60" angle="90.00" type="human" speed="13.70" pos="18.72" lane="e0_0" slope="0.00"/>
    </timestep>
    <timestep time="5.00">
        <vehicle id="background.0" x="25.64" y="-1.60" angle="90.00" type="human" speed="13.85" pos="25.64" lane="e0_0" slope="0.00"/>
    </timestep>
    <timestep time="5.50">
        <vehicle id="background.0" x="32.45" y="-1.60" angle="90.00" type="human" speed="13.61" pos="32.45" lane="e0_0" slope="0.00"/>
    </timestep>
    <timestep time="6.00">
        <vehicle id="background.0" x="39.29" y="-1.60" angle="90.00" type="human" speed="13.70" pos="39.29" lane="e0_0" slope="0.00"/>
    </timestep>
    <timestep time="6.50">
        <vehicle id="background.0" x="45.99" y="-1.60" angle="90.00" type="human" speed="13.40" pos="45.99" lane="e0_0" slope="0.00"/>
    </timestep>
    <timestep time="7.00">
        <vehicle id="background.0" x="52.77" y="-1.60" angle="90.00" type="human" speed="13.55" pos="52.77" lane="e0_0" slope="0.00"/>
    </timestep>
    <timestep time="7.50">
        <vehicle id="background.0" x="59.56" y="-1.60" angle="90.00" type="human" speed="13.59" pos="59.56" lane="e0_0" slope="0.00"/>
    </timestep>
    <timestep time="8.00">
        <vehicle id="background.0" x="66.43" y="-1.60" angle="90.00" type="human" speed="13.73" pos="66.43" lane="e0_0" slope="0.00"/>
    </timestep>
    <timestep time="8.50">
        <vehicle id="background.0" x="73.12" y="-1.60" angle="90.00" type="human" speed="13.39" pos="73.12" lane="e0_0" slope="0.00"/>
    </timestep>
    <timestep time="9.00">
        <vehicle id="background.0" x="79.82" y="-1.60" angle="90.00" type="human" speed="13.39" pos="79.82" lane="e0_0" slope="0.00"/>
    </timestep>
    <timestep time="9.50">
        <vehicle id="background.0" x="86.62" y="-1.60" angle="90.00" type="human" speed="13.61" pos="86.62" lane="e0_0" slope="0.00"/>
    </timestep>
    <timestep time="10.00">
        <vehicle id="background.0" x="93.52" y="-1.60" angle="90.00" type="human" speed="13.79" pos="93.52" lane="e0_0" slope="0.00"/>
    </timestep>
    <timestep time="10.50">
        <vehicle id="background.0" x="100.24" y="-1.60" angle="90.00" type="human" speed="13.45" pos="100.24" lane="e0_0" slope="0.00"/>
    </timestep>
    <timestep time="11.00">
        <vehicle id="background.0" x="107.08" y="-1.60" angle="90.00" type="human" speed="13.67" pos="107.08" lane="e0_0" slope="0.00"/>
    </timestep>
    <timestep time="11.50">
        <vehicle id="background.0" x="113.88" y="-1.60" angle="90.00" type="human" speed="13.60" pos="113.88" lane="e0_0" slope="0.00"/>
    </timestep>
    <timestep time="12.00">
        <vehicle id="background.0" x="120.67" y="-1.60" angle="90.00" type="human" speed="13.57" pos="120.67" lane="e0_0" slope="0.00"/>
    </timestep>
    <timestep time="12.50">
        <vehicle id="background.0" x="127.40" y="-1.60" angle="90.00" type="human" speed="13.47" pos="127.40" lane="e0_0" slope="0.00"/>
    </timestep>
    <timestep time="13.00">
        <vehicle id="background.0" x="134.21" y="-1.60" angle="90.00" type="human" speed="13.62" pos="134.21" lane="e0_0" slope="0.00"/>
    </timestep>
    <timestep time="13.50">
        <vehicle id="background.0" x="140.94" y="-1.60" angle="90.00" type="human" speed="13.45" pos="140.94" lane="e0_0" slope="0.00"/>
    </timestep>
    <timestep time="14.00">
        <vehicle id="background.0" x="147.83" y="-1.60" angle="90.00" type="human" speed="13.78" pos="147.83" lane="e0_0" slope="0.00"/>
    </timestep>
    <timestep time="14.50">
        <vehicle id="background.0" x="154.72" y="-1.60" angle="90.00" type="human" speed="13.79" pos="154.72" lane="e0_0" slope="0.00"/>
    </timestep>
    <timestep time="15.00">
        <vehicle id="background.0" x="161.60" y="-1.60" angle="90.00" type="human" speed="13.76" pos="161.60" lane="e0_0" slope="0.00"/>
    </timestep>
    <timestep time="15.50">
        <vehicle id="background.0" x="168.37" y="-1.60" angle="90.00" type="human" speed="13.54" pos="168.37" lane="e0_0" slope="0.00"/>
    </timestep>
    <timestep time="16.00">
        <vehicle id="background.0" x="175.14" y="-1.60" angle="90.00" type="human" speed="13.54" pos="175.14" lane="e0_0" slope="0.00"/>
    </timestep>
    <timestep time="16.50">
        <vehicle id="background.0" x="181.94" y="-1.60" angle="90.00" type="human" speed="13.60" pos="181.94" lane="e0_0" slope="0.00"/>
    </timestep>
    <timestep time="17.00">
        <vehicle id="background.0" x="188.81" y="-1.60" angle="90.00" type="human" speed="13.74" pos="188.81" lane="e0_0" slope="0.00"/>
    </timestep>
    <timestep time="17.50">
        <vehicle id="background.0" x="195.72" y="-1.60" angle="90.00" type="human" speed="13.81" pos="195.72" lane="e0_0" slope="0.00"/>
    </timestep>
    <timestep time="18.00">
        <vehicle id="background.0" x="202.55" y="-1.60" angle="90.00" type="human" speed="13.66" pos="202.55" lane="e0_0" slope="0.00"/>
    </timestep>
    <timestep time="18.50">
        <vehicle id="background.0" x="209.33" y="-1.60" angle="90.00" type="human" speed="13.56" pos="209.33" lane="e0_0" slope="0.00"/>
    </timestep>
    <timestep time="19.00">
        <vehicle id="background.0" x="216.25" y="-1.60" angle="90.00" type="human" speed="13.84" pos="216.25" lane="e0_0" slope="0.00"/>
    </timestep>
    <timestep time="19.50">
        <vehicle id="background.0" x="223.15" y="-1.60" angle="90.00" type="human" speed="13.79" pos="223.15" lane="e0_0" slope="0.00"/>
    </timestep>
    <timestep time="20.00">
        <vehicle id="background.0" x="230.00" y="-1.60" angle="90.00" type="human" speed="13.71" pos="230.00" lane="e0_0" slope="0.00"/>
    </timestep>
    <timestep time="20.50">
        <vehicle id="background.0" x="236.89" y="-1.60" angle="90.00" type="human" speed="13.77" pos="236.89" lane="e0_0" slope="0.00"/>
    </timestep>
    <timestep time="21.00">
        <vehicle id="background.0" x="243.75" y="-1.60" angle="90.00" type="human" speed="13.72" pos="243.75" lane="e0_0" slope="0.00"/>
    </timestep>
    <timestep time="21.50">
        <vehicle id="background.0" x="250.64" y="-1.60" angle="90.00" type="human" speed="13.78" pos="250.64" lane="e0_0" slope="0.00"/>
    </timestep>
    <timestep time="22.00">
        <vehicle id="background.0" x="257.46" y="-1.60" angle="90.00" type="human" speed="13.65" pos="257.46" lane="e0_0" slope="0.00"/>
    </timestep>
    <timestep time="22.50">
        <vehicle id="background.0" x="264.21" y="-1.60" angle="90.00" type="human" speed="13.50" pos="264.21" lane="e0_0" slope="0.00"/>
    </timestep>
    <timestep time="23.00">
        <vehicle id="background.0" x="271.13" y="-1.60" angle="90.00" type="human" speed="13.84" pos="271.13" lane="e0_0" slope="0.00"/>
    </timestep>
    <timestep time="23.50">
        <vehicle id="background.0" x="277.95" y="-1.60" angle="90.00" type="human" speed="13.63" pos="277.95" lane="e0_0" slope="0.00"/>
    </timestep>
    <timestep time="24.00">
        <vehicle id="background.0" x="284.69" y="-1.60" angle="90.00" type="human" speed="13.49" pos="284.69" lane="e0_0" slope="0.00"/>
    </timestep>
    <timestep time="24.50">
        <vehicle id="background.0" x="291.52" y="-1.60" angle="90.00" type="human" speed="13.66" pos="291.52" lane="e0_0" slope="0.00"/>
        <vehicle id="background.1" x="5.10" y="-1.60" angle="90.00" type="human" speed="11.89" pos="5.10" lane="e0_0" slope="0.00"/>
    </timestep>
    <timestep time="25.00">
        <vehicle id="background.0" x="298.27" y="-1.60" angle="90.00" type="human" speed="13.50" pos="298.27" lane="e0_0" slope="0.00"/>
        <vehicle id="background.1" x="11.04" y="-1.60" angle="90.00" type="human" speed="11.87" pos="11.04" lane="e0_0" slope="0.00"/>
    </timestep>
    <timestep time="25.50">
        <vehicle id="background.0" x="304.97" y="-1.60" angle="90.00" type="human" speed="13.59" pos="4.97" lane="e1_0" slope="0.00"/>
        <vehicle id="background.1" x="16.97" y="-1.60" angle="90.00" type="human" speed="11.86" pos="16.97" lane="e0_0" slope="0.00"/>
    </timestep>
    <timestep time="26.00">
        <vehicle id="background.0" x="311.70" y="-1.60" angle="90.00" type="human" speed="13.46" pos="11.70" lane="e1_0" slope="0.00"/>
        <vehicle id="background.1" x="22.73" y="-1.60" angle="90.00" type="human" speed="11.53" pos="22.73" lane="e0_0" slope="0.00"/>
    </timestep>
    <timestep time="26.50">
        <vehicle id="background.0" x="318.42" y="-1.60" angle="90.00" type="human" speed="13.46" pos="18.42" lane="e1_0" slope="0.00"/>
        <vehicle id="background.1" x="28.63" y="-1.60" angle="90.00" type="human" speed="11.79" pos="28.63" lane="e0_0" slope="0.00"/>
    </timestep>
    <timestep time="27.00">
        <vehicle id="background.0" x="325.35" y="-1.60" angle="90.00" type="human" speed="13.85" pos="25.35" lane="e1_0" slope="0.00"/>
        <vehicle id="background.1" x="34.43" y="-1.60" angle="90.00" type="human" speed="11.60" pos="34.43" lane="e0_0" slope="0.00"/>
    </timestep>
    <timestep time="27.50">
        <vehicle id="background.0" x="332.25" y="-1.60" angle="90.00" type="human" speed="13.79" pos="32.25" lane="e1_0" slope="0.00"/>
        <vehicle id="background.1" x="40.37" y="-1.60" angle="90.00" type="human" speed="11.88" pos="40.37" lane="e0_0" slope="0.00"/>
    </timestep>
    <timestep time="28.00">
        <vehicle id="background.0" x="339.13" y="-1.60" angle="90.00" type="human" speed="13.76" pos="39.13" lane="e1_0" slope="0.00"/>
        <vehicle id="background.1" x="46.15" y="-1.60" angle="90.00" type="human" speed="11.57" pos="46.15" lane="e0_0" slope="0.00"/>
    </timestep>
    <timestep time="28.50">
        <vehicle id="background.0" x="345.96" y="-1.60" angle="90.00" type="human" speed="13.66" pos="45.96" lane="e1_0" slope="0.00"/>
        <vehicle id="background.1" x="51.92" y="-1.60" angle="90.00" type="human" speed="11.54" pos="51.92" lane="e0_0" slope="0.00"/>
    </timestep>
    <timestep time="29.00">
        <vehicle id="background.1" x="57.67" y="-1.60" angle="90.00" type="human" speed="11.49" pos="57.67" lane="e0_0" slope="0.00"/>
    </timestep>
    <timestep time="29.50">
        <vehicle id="background.1" x="63.45" y="-1.60" angle="90.00" type="human" speed="11.56" pos="63.45" lane="e0_0" slope="0.00"/>
    </timestep>
    <timestep time="30.00">
        <vehicle id="background.1" x="69.18" y="-1.60" angle="90.00" type="human" speed="11.46" pos="69.18" lane="e0_0" slope="0.00"/>
    </timestep>
    <timestep time="30.50">
        <vehicle id="background.1" x="75.00" y="-1.60" angle="90.00" type="human" speed="11.66" pos="75.00" lane="e0_0" slope="0.00"/>
    </timestep>
    <timestep time="31.00">
        <vehicle id="background.1" x="80.86" y="-1.60" angle="90.00" type="human" speed="11.71" pos="80.86" lane="e0_0" slope="0.00"/>
    </timestep>
    <timestep time="31.50">
        <vehicle id="background.1" x="86.71" y="-1.60" angle="90.00" type="human" speed="11.69" pos="86.71" lane="e0_0" slope="0.00"/>
    </timestep>
    <timestep time="32.00">
        <vehicle id="background.1" x="92.57" y="-1.60" angle="90.00" type="human" speed="11.74" pos="92.57" lane="e0_0" slope="0.00"/>
    </timestep>
    <timestep time="32.50">
        <vehicle id="background.1" x="98.31" y="-1.60" angle="90.00" type="human" speed="11.46" pos="98.31" lane="e0_0" slope="0.00"/>
    </timestep>
    <timestep time="33.00">
        <vehicle id="background.1" x="104.10" y="-1.60" angle="90.00" type="human" speed="11.59" pos="104.10" lane="e0_0" slope="0.00"/>
    </timestep>
    <timestep time="33.50">
        <vehicle id="background.1" x="109.82" y="-1.60" angle="90.00" type="human" speed="11.44" pos="109.82" lane="e0_0" slope="0.00"/>
        <vehicle id="background.2" x="5.10" y="-1.60" angle="90.00" type="human" speed="13.81" pos="5.10" lane="e0_0" slope="0.00"/>
    </timestep>
    <timestep time="34.00">
        <vehicle id="background.1" x="115.67" y="-1.60" angle="90.00" type="human" speed="11.70" pos="115.67" lane="e0_0" slope="0.00"/>
        <vehicle id="background.2" x="12.00" y="-1.60" angle="90.00" type="human" speed="13.79" pos="12.00" lane="e0_0" slope="0.00"/>
    </timestep>
    <timestep time="34.50">
        <vehicle id="background.1" x="121.40" y="-1.60" angle="90.00" type="human" speed="11.46" pos="121.40" lane="e0_0" slope="0.00"/>
        <vehicle id="background.2" x="18.74" y="-1.60" angle="90.00" type="human" speed="13.48" pos="18.74" lane="e0_0" slope="0.00"/>
    </timestep>
    <timestep time="35.00">
        <vehicle id="background.1" x="127.17" y="-1.60" angle="90.00" type="human" speed="11.53" pos="127.17" lane="e0_0" slope="0.00"/>
        <vehicle id="background.2" x="25.62" y="-1.60" angle="90.00" type="human" speed="13.77" pos="25.62" lane="e0_0" slope="0.00"/>
    </timestep>
    <timestep time="35.50">
        <vehicle id="background.1" x="133.01" y="-1.60" angle="90.00" type="human" speed="11.68" pos="133.01" lane="e0_0" slope="0.00"/>
        <vehicle id="background.2" x="32.35" y="-1.60" angle="90.00" type="human" speed="13.46" pos="32.35" lane="e0_0" slope="0.00"/>
    </timestep>
    <timestep time="36.00">
        <vehicle id="background.1" x="138.73" y="-1.60" angle="90.00" type="human" speed="11.45" pos="138.73" lane="e0_0" slope="0.00"/>
        <vehicle id="background.2" x="39.06" y="-1.60" angle="90.00" type="human" speed="13.43" pos="39.06" lane="e0_0" slope="0.00"/>
    </timestep>
    <timestep time="36.50">
        <vehicle id="background.1" x="144.67" y="-1.60" angle="90.00" type="human" speed="11.88" pos="144.67" lane="e0_0" slope="0.00"/>
        <vehicle id="background.2" x="45.73" y="-1.60" angle="90.00" type="human" speed="13.34" pos="45.73" lane="e0_0" slope="0.00"/>
    </timestep>
    <timestep time="37.00">
        <vehicle id="background.1" x="150.51" y="-1.60" angle="90.00" type="human" speed="11.66" pos="150.51" lane="e0_0" slope="0.00"/>
        <vehicle id="background.2" x="52.42" y="-1.60" angle="90.00" type="human" speed="13.37" pos="52.42" lane="e0_0" slope="0.00"/>
    </timestep>
    <timestep time="37.50">
        <vehicle id="background.1" x="156.41" y="-1.60" angle="90.00" type="human" speed="11.81" pos="156.41" lane="e0_0" slope="0.00"/>
        <vehicle id="background.2" x="59.09" y="-1.60" angle="90.00" type="human" speed="13.35" pos="59.09" lane="e0_0" slope="0.00"/>
    </timestep>
    <timestep time="38.00">
        <vehicle id="background.1" x="162.14" y="-1.60" angle="90.00" type="human" speed="11.47" pos="162.14" lane="e0_0" slope="0.00"/>
        <vehicle id="background.2" x="65.99" y="-1.60" angle="90.00" type="human" speed="13.80" pos="65.99" lane="e0_0" slope="0.00"/>
    </timestep>
    <timestep time="38.50">
        <vehicle id="background.1" x="168.06" y="-1.60" angle="90.00" type="human" speed="11.83" pos="168.06" lane="e0_0" slope="0.00"/>
        <vehicle id="background.2" x="72.65" y="-1.60" angle="90.00" type="human" speed="13.32" pos="72.65" lane="e0_0" slope="0.00"/>
    </timestep>
    <timestep time="39.00">
        <vehicle id="background.1" x="173.81" y="-1.60" angle="90.00" type="human" speed="11.52" pos="173.81" lane="e0_0" slope="0.00"/>
        <vehicle id="background.2" x="79.53" y="-1.60" angle="90.00" type="human" speed="13.75" pos="79.53" lane="e0_0" slope="0.00"/>
    </timestep>
    <timestep time="39.50">
        <vehicle id="background.1" x="179.55" y="-1.60" angle="90.00" type="human" speed="11.47" pos="179.55" lane="e0_0" slope="0.00"/>
        <vehicle id="background.2" x="86.19" y="-1.60" angle="90.00" type="human" speed="13.33" pos="86.19" lane="e0_0" slope="0.00"/>
    </timestep>
    <timestep time="40.00">
        <vehicle id="background.1" x="185.45" y="-1.60" angle="90.00" type="human" speed="11.80" pos="185.45" lane="e0_0" slope="0.00"/>
        <vehicle id="background.2" x="93.07" y="-1.60" angle="90.00" type="human" speed="13.75" pos="93.07" lane="e0_0" slope="0.00"/>
    </timestep>
    <timestep time="40.50">
        <vehicle id="background.1" x="191.33" y="-1.60" angle="90.00" type="human" speed="11.75" pos="191.33" lane="e0_0" slope="0.00"/>
        <vehicle id="background.2" x="99.91" y="-1.60" angle="90.00" type="human" speed="13.68" pos="99.91" lane="e0_0" slope="0.00"/>
    </timestep>
    <timestep time="41.00">
        <vehicle id="background.1" x="197.04" y="-1.60" angle="90.00" type="human" speed="11.43" pos="197.04" lane="e0_0" slope="0.00"/>
        <vehicle id="background.2" x="106.64" y="-1.60" angle="90.00" type="human" speed="13.47" pos="106.64" lane="e0_0" slope="0.00"/>
    </timestep>
    <timestep time="41.50">
        <vehicle id="background.1" x="202.82" y="-1.60" angle="90.00" type="human" speed="11.57" pos="202.82" lane="e0_0" slope="0.00"/>
        <vehicle id="background.2" x="113.48" y="-1.60" angle="90.00" type="human" speed="13.69" pos="113.48" lane="e0_0" slope="0.00"/>
    </timestep>
    <timestep time="42.00">
        <vehicle id="background.1" x="208.69" y="-1.60" angle="90.00" type="human" speed="11.73" pos="208.69" lane="e0_0" slope="0.00"/>
        <vehicle id="background.2" x="120.28" y="-1.60" angle="90.00" type="human" speed="13.59" pos="120.28" lane="e0_0" slope="0.00"/>
    </timestep>
    <timestep time="42.50">
        <vehicle id="background.1" x="214.53" y="-1.60" angle="90.00" type="human" speed="11.68" pos="214.53" lane="e0_0" slope="0.00"/>
        <vehicle id="background.2" x="126.97" y="-1.60" angle="90.00" type="human" speed="13.38" pos="126.97" lane="e0_0" slope="0.00"/>
    </timestep>
    <timestep time="43.00">
        <vehicle id="background.1" x="220.43" y="-1.60" angle="90.00" type="human" speed="11.81" pos="220.43" lane="e0_0" slope="0.00"/>
        <vehicle id="background.2" x="133.85" y="-1.60" angle="90.00" type="human" speed="13.76" pos="133.85" lane="e0_0" slope="0.00"/>
    </timestep>
    <timestep time="43.50">
        <vehicle id="background.1" x="226.33" y="-1.60" angle="90.00" type="human" speed="11.79" pos="226.33" lane="e0_0" slope="0.00"/>
        <vehicle id="background.2" x="140.58" y="-1.60" angle="90.00" type="human" speed="13.47" pos="140.58" lane="e0_0" slope="0.00"/>
    </timestep>
    <timestep time="44.00">
        <vehicle id="background.1" x="232.23" y="-1.60" angle="90.00" type="human" speed="11.79" pos="232.23" lane="e0_0" slope="0.00"/>
        <vehicle id="background.2" x="147.38" y="-1.60" angle="90.00" type="human" speed="13.60" pos="147.38" lane="e0_0" slope="0.00"/>
    </timestep>
    <timestep time="44.50">
        <vehicle id="background.1" x="237.96" y="-1.60" angle="90.00" type="human" speed="11.46" pos="237.96" lane="e0_0" slope="0.00"/>
        <vehicle id="background.2" x="154.09" y="-1.60" angle="90.00" type="human" speed="13.41" pos="154.09" lane="e0_0" slope="0.00"/>
    </timestep>
    <timestep time="45.00">
        <vehicle id="background.1" x="243.73" y="-1.60" angle="90.00" type="human" speed="11.55" pos="243.73" lane="e0_0" slope="0.00"/>
        <vehicle id="background.2" x="160.78" y="-1.60" angle="90.00" type="human" speed="13.38" pos="160.78" lane="e0_0" slope="0.00"/>
    </timestep>
    <timestep time="45.50">
        <vehicle id="background.1" x="249.65" y="-1.60" angle="90.00" type="human" speed="11.84" pos="249.65" lane="e0_0" slope="0.00"/>
        <vehicle id="background.2" x="167.44" y="-1.60" angle="90.00" type="human" speed="13.33" pos="167.44" lane="e0_0" slope="0.00"/>
    </timestep>
    <timestep time="46.00">
        <vehicle id="background.1" x="255.51" y="-1.60" angle="90.00" type="human" speed="11.73" pos="255.51" lane="e0_0" slope="0.00"/>
        <vehicle id="background.2" x="174.17" y="-1.60" angle="90.00" type="human" speed="13.46" pos="174.17" lane="e0_0" slope="0.00"/>
    </timestep>
    <timestep time="46.50">
        <vehicle id="background.1" x="261.31" y="-1.60" angle="90.00" type="human" speed="11.60" pos="261.31" lane="e0_0" slope="0.00"/>
        <vehicle id="background.2" x="181.06" y="-1.60" angle="90.00" type="human" speed="13.77" pos="181.06" lane="e0_0" slope="0.00"/>
    </timestep>
    <timestep time="47.00">
        <vehicle id="background.1" x="267.25" y="-1.60" angle="90.00" type="human" speed="11.88" pos="267.25" lane="e0_0" slope="0.00"/>
        <vehicle id="background.2" x="187.89" y="-1.60" angle="90.00" type="human" speed="13.66" pos="187.89" lane="e0_0" slope="0.00"/>
    </timestep>
    <timestep time="47.50">
        <vehicle id="background.1" x="273.14" y="-1.60" angle="90.00" type="human" speed="11.78" pos="273.14" lane="e0_0" slope="0.00"/>
        <vehicle id="background.2" x="194.75" y="-1.60" angle="90.00" type="human" speed="13.72" pos="194.75" lane="e0_0" slope="0.00"/>
    </timestep>
    <timestep time="48.00">
        <vehicle id="background.1" x="278.92" y="-1.60" angle="90.00" type="human" speed="11.54" pos="278.92" lane="e0_0" slope="0.00"/>
        <vehicle id="background.2" x="201.58" y="-1.60" angle="90.00" type="human" speed="13.66" pos="201.58" lane="e0_0" slope="0.00"/>
    </timestep>
    <timestep time="48.50">
        <vehicle id="background.1" x="284.79" y="-1.60" angle="90.00" type="human" speed="11.75" pos="284.79" lane="e0_0" slope="0.00"/>
        <vehicle id="background.2" x="208.36" y="-1.60" angle="90.00" type="human" speed="13.58" pos="208.36" lane="e0_0" slope="0.00"/>
    </timestep>
    <timestep time="49.00">
        <vehicle id="background.1" x="289.79" y="-1.60" angle="90.00" type="human" speed="9.99" pos="289.79" lane="e0_0" slope="0.00"/>
        <vehicle id="background.2" x="215.02" y="-1.60" angle="90.00" type="human" speed="13.31" pos="215.02" lane="e0_0" slope="0.00"/>
    </timestep>
    <timestep time="49.50">
        <vehicle id="background.1" x="293.77" y="-1.60" angle="90.00" type="human" speed="7.96" pos="293.77" lane="e0_0" slope="0.00"/>
        <vehicle id="background.2" x="221.75" y="-1.60" angle="90.00" type="human" speed="13.46" pos="221.75" lane="e0_0" slope="0.00"/>
    </timestep>
    <timestep time="50.00">
        <vehicle id="background.1" x="296.62" y="-1.60" angle="90.00" type="human" speed="5.71" pos="296.62" lane="e0_0" slope="0.00"/>
        <vehicle id="background.2" x="228.61" y="-1.60" angle="90.00" type="human" speed="13.72" pos="228.61" lane="e0_0" slope="0.00"/>
    </timestep>
    <timestep time="50.50">
        <vehicle id="background.1" x="298.35" y="-1.60" angle="90.00" type="human" speed="3.46" pos="298.35" lane="e0_0" slope="0.00"/>
        <vehicle id="background.2" x="235.45" y="-1.60" angle="90.00" type="human" speed="13.68" pos="235.45" lane="e0_0" slope="0.00"/>
    </timestep>
    <timestep time="51.00">
        <vehicle id="background.1" x="298.99" y="-1.60" angle="90.00" type="human" speed="1.28" pos="298.99" lane="e0_0" slope="0.00"/>
        <vehicle id="background.2" x="242.35" y="-1.60" angle="90.00" type="human" speed="13.80" pos="242.35" lane="e0_0" slope="0.00"/>
    </timestep>
    <timestep time="51.50">
        <vehicle id="background.1" x="299.00" y="-1.60" angle="90.00" type="human" speed="0.01" pos="299.00" lane="e0_0" slope="0.00"/>
        <vehicle id="background.2" x="249.09" y="-1.60" angle="90.00" type="human" speed="13.47" pos="249.09" lane="e0_0" slope="0.00"/>
    </timestep>
    <timestep time="52.00">
        <vehicle id="background.1" x="299.00" y="-1.60" angle="90.00" type="human" speed="0.00" pos="299.00" lane="e0_0" slope="0.00"/>
        <vehicle id="background.2" x="255.94" y="-1.60" angle="90.00" type="human" speed="13.71" pos="255.94" lane="e0_0" slope="0.00"/>
    </timestep>
    <timestep time="52.50">
        <vehicle id="background.1" x="299.00" y="-1.60" angle="90.00" type="human" speed="0.00" pos="299.00" lane="e0_0" slope="0.00"/>
        <vehicle id="background.2" x="262.68" y="-1.60" angle="90.00" type="human" speed="13.49" pos="262.68" lane="e0_0" slope="0.00"/>
    </timestep>
    <timestep time="53.00">
        <vehicle id="background.1" x="299.00" y="-1.60" angle="90.00" type="human" speed="0.00" pos="299.00" lane="e0_0" slope="0.00"/>
        <vehicle id="background.2" x="269.04" y="-1.60" angle="90.00" type="human" speed="12.72" pos="269.04" lane="e0_0" slope="0.00"/>
    </timestep>
    <timestep time="53.50">
        <vehicle id="background.1" x="299.00" y="-1.60" angle="90.00" type="human" speed="0.00" pos="299.00" lane="e0_0" slope="0.00"/>
        <vehicle id="background.2" x="274.62" y="-1.60" angle="90.00" type="human" speed="11.15" pos="274.62" lane="e0_0" slope="0.00"/>
    </timestep>
    <timestep time="54.00">
        <vehicle id="background.1" x="299.00" y="-1.60" angle="90.00" type="human" speed="0.00" pos="299.00" lane="e0_0" slope="0.00"/>
        <vehicle id="background.2" x="279.09" y="-1.60" angle="90.00" type="human" speed="8.95" pos="279.09" lane="e0_0" slope="0.00"/>
    </timestep>
    <timestep time="54.50">
        <vehicle id="background.1" x="299.00" y="-1.60" angle="90.00" type="human" speed="0.00" pos="299.00" lane="e0_0" slope="0.00"/>
        <vehicle id="background.2" x="282.87" y="-1.60" angle="90.00" type="human" speed="7.55" pos="282.87" lane="e0_0" slope="0.00"/>
    </timestep>
    <timestep time="55.00">
        <vehicle id="background.1" x="299.00" y="-1.60" angle="90.00" type="human" speed="0.00" pos="299.00" lane="e0_0" slope="0.00"/>
        <vehicle id="background.2" x="285.84" y="-1.60" angle="90.00" type="human" speed="5.95" pos="285.84" lane="e0_0" slope="0.00"/>
    </timestep>
    <timestep time="55.50">
        <vehicle id="background.1" x="299.00" y="-1.60" angle="90.00" type="human" speed="0.00" pos="299.00" lane="e0_0" slope="0.00"/>
        <vehicle id="background.2" x="288.08" y="-1.60" angle="90.00" type="human" speed="4.48" pos="288.08" lane="e0_0" slope="0.00"/>
    </timestep>
    <timestep time="56.00">
        <vehicle id="background.1" x="299.00" y="-1.60" angle="90.00" type="human" speed="0.00" pos="299.00" lane="e0_0" slope="0.00"/>
        <vehicle id="background.2" x="289.59" y="-1.60" angle="90.00" type="human" speed="3.02" pos="289.59" lane="e0_0" slope="0.00"/>
    </timestep>
    <timestep time="56.50">
        <vehicle id="background.1" x="299.00" y="-1.60" angle="90.00" type="human" speed="0.00" pos="299.00" lane="e0_0" slope="0.00"/>
        <vehicle id="background.2" x="290.53" y="-1.60" angle="90.00" type="human" speed="1.87" pos="290.53" lane="e0_0" slope="0.00"/>
    </timestep>
    <timestep time="57.00">
        <vehicle id="background.1" x="299.00" y="-1.60" angle="90.00" type="human" speed="0.00" pos="299.00" lane="e0_0" slope="0.00"/>
        <vehicle id="background.2" x="290.98" y="-1.60" angle="90.00" type="human" speed="0.90" pos="290.98" lane="e0_0" slope="0.00"/>
    </timestep>
    <timestep time="57.50">
        <vehicle id="background.1" x="299.00" y="-1.60" angle="90.00" type="human" speed="0.00" pos="299.00" lane="e0_0" slope="0.00"/>
        <vehicle id="background.2" x="291.19" y="-1.60" angle="90.00" type="human" speed="0.42" pos="291.19" lane="e0_0" slope="0.00"/>
    </timestep>
    <timestep time="58.00">
        <vehicle id="background.1" x="299.00" y="-1.60" angle="90.00" type="human" speed="0.00" pos="299.00" lane="e0_0" slope="0.00"/>
        <vehicle id="background.2" x="291.33" y="-1.60" angle="90.00" type="human" speed="0.29" pos="291.33" lane="e0_0" slope="0.00"/>
    </timestep>
    <timestep time="58.50">
        <vehicle id="background.1" x="299.00" y="-1.60" angle="90.00" type="human" speed="0.00" pos="299.00" lane="e0_0" slope="0.00"/>
        <vehicle id="background.2" x="291.39" y="-1.60" angle="90.00" type="human" speed="0.13" pos="291.39" lane="e0_0" slope="0.00"/>
    </timestep>
    <timestep time="59.00">
        <vehicle id="background.1" x="299.00" y="-1.60" angle="90.00" type="human" speed="0.00" pos="299.00" lane="e0_0" slope="0.00"/>
        <vehicle id="background.2" x="291.44" y="-1.60" angle="90.00" type="human" speed="0.10" pos="291.44" lane="e0_0" slope="0.00"/>
    </timestep>
    <timestep time="59.50">
        <vehicle id="background.1" x="299.00" y="-1.60" angle="90.00" type="human" speed="0.00" pos="299.00" lane="e0_0" slope="0.00"/>