<?xml version="1.0" encoding="UTF-8"?>

<!-- generated on 2026-05-14 17:04:54 by Eclipse SUMO sumo Version 1.24.0
<sumoConfiguration xmlns:xsi="http://www.w3.org/2001/XMLSchema-instance" xsi:noNamespaceSchemaLocation="http://sumo.dlr.de/xsd/sumoConfiguration.xsd">

    <input>
        <net-file value="scenarios/simple_arterial/simple_arterial.net.xml"/>
        <route-files value="scenarios/simple_arterial/simple_arterial.rou.xml"/>
        <additional-files value="scenarios/simple_arterial/simple_arterial.tls.xml"/>
    </input>

    <output>
        <fcd-output value="runs/fcd_expert_default/episode_00058_seed_100.fcd.xml"/>
    </output>

    <time>
        <begin value="0"/>
        <end value="900"/>
        <step-length value="0.5"/>
    </time>

    <report>
        <no-warnings value="true"/>
    </report>

    <traci_server>
        <remote-port value="24542"/>
    </traci_server>

    <random_number>
        <seed value="100"/>
    </random_number>

</sumoConfiguration>
-->

<fcd-export xmlns:xsi="http://www.w3.org/2001/XMLSchema-instance" xsi:noNamespaceSchemaLocation="http://sumo.dlr.de/xsd/fcd_file.xsd">
    <timestep time="0.00"/>
    <timestep time="0.50"/>
    <timestep time="1.00"/>
    <timestep time="1.50"/>
    <timestep time="2.00"/>
    <timestep time="2.50"/>
    <timestep time="3.00"/>
    <timestep time="3.50"/>
    <timestep time="4.00">
        <vehicle id="background.0" x="5.10" y="-1.60" angle="90.00" type="human" speed="13.89" pos="5.10" lane="e0_0" slope="0.00"/>
    </timestep>
    <timestep time="4.50">
        <vehicle id="background.0" x="11.92" y="-1.60" angle="90.00" type="human" speed="13.63" pos="11.92" lane="e0_0" slope="0.00"/>
    </timestep>
    <timestep time="5.00">
        <vehicle id="background.0" x="18.72" y="-1.60" angle="90.00" type="human" speed="13.61" pos="18.72" lane="e0_0" slope="0.00"/>
    </timestep>
    <timestep time="5.50">
        <vehicle id="background.0" x="25.53" y="-1.60" angle="90.00" type="human" speed="13.60" pos="25.53" lane="e0_0" slope="0.00"/>
    </timestep>
    <timestep time="6.00">
        <vehicle id="background.0" x="32.23" y="-1.60" angle="90.00" type="human" speed="13.41" pos="32.23" lane="e0_0" slope="0.00"/>
    </timestep>
    <timestep time="6.50">
        <vehicle id="background.0" x="39.17" y="-1.60" angle="90.00" type="human" speed="13.88" pos="39.17" lane="e0_0" slope="0.00"/>
    </timestep>
    <timestep time="7.00">
        <vehicle id="background.0" x="45.87" y="-1.60" angle="90.00" type="human" speed="13.40" pos="45.87" lane="e0_0" slope="0.00"/>
    </timestep>
    <timestep time="7.50">
        <vehicle id="background.0" x="52.77" y="-1.60" angle="90.00" type="human" speed="13.80" pos="52.77" lane="e0_0" slope="0.00"/>
    </timestep>
    <timestep time="8.00">
        <vehicle id="background.0" x="59.72" y="-1.60" angle="90.00" type="human" speed="13.89" pos="59.72" lane="e0_0" slope="0.00"/>
    </timestep>
    <timestep time="8.50">
        <vehicle id="background.0" x="66.49" y="-1.60" angle="90.00" type="human" speed="13.55" pos="66.49" lane="e0_0" slope="0.00"/>
    </timestep>
    <timestep time="9.00">
        <vehicle id="background.0" x="73.30" y="-1.60" angle="90.00" type="human" speed="13.62" pos="73.30" lane="e0_0" slope="0.00"/>
    </timestep>
    <timestep time="9.50">
        <vehicle id="background.0" x="80.04" y="-1.60" angle="90.00" type="human" speed="13.47" pos="80.04" lane="e0_0" slope="0.00"/>
    </timestep>
    <timestep time="10.00">
        <vehicle id="background.0" x="86.91" y="-1.60" angle="90.00" type="human" speed="13.75" pos="86.91" lane="e0_0" slope="0.00"/>
    </timestep>
    <timestep time="10.50">
        <vehicle id="background.0" x="93.78" y="-1.60" angle="90.00" type="human" speed="13.74" pos="93.78" lane="e0_0" slope="0.00"/>
    </timestep>
    <timestep time="11.00">
        <vehicle id="background.0" x="100.58" y="-1.60" angle="90.00" type="human" speed="13.60" pos="100.58" lane="e0_0" slope="0.00"/>
    </timestep>
    <timestep time="11.50">
        <vehicle id="background.0" x="107.30" y="-1.60" angle="90.00" type="human" speed="13.44" pos="107.30" lane="e0_0" slope="0.00"/>
    </timestep>
    <timestep time="12.00">
        <vehicle id="background.0" x="114.18" y="-1.60" angle="90.00" type="human" speed="13.76" pos="114.18" lane="e0_0" slope="0.00"/>
    </timestep>
    <timestep time="12.50">
        <vehicle id="background.0" x="120.94" y="-1.60" angle="90.00" type="human" speed="13.53" pos="120.94" lane="e0_0" slope="0.00"/>
    </timestep>
    <timestep time="13.00">
        <vehicle id="background.0" x="127.69" y="-1.60" angle="90.00" type="human" speed="13.50" pos="127.69" lane="e0_0" slope="0.00"/>
    </timestep>
    <timestep time="13.50">
        <vehicle id="background.0" x="134.59" y="-1.60" angle="90.00" type="human" speed="13.80" pos="134.59" lane="e0_0" slope="0.00"/>
        <vehicle id="background.1" x="5.10" y="-1.60" angle="90.00" type="human" speed="11.67" pos="5.10" lane="e0_0" slope="0.00"/>
    </timestep>
    <timestep time="14.00">
        <vehicle id="background.0" x="141.31" y="-1.60" angle="90.00" type="human" speed="13.44" pos="141.31" lane="e0_0" slope="0.00"/>
        <vehicle id="background.1" x="10.80" y="-1.60" angle="90.00" type="human" speed="11.39" pos="10.80" lane="e0_0" slope="0.00"/>
    </timestep>
    <timestep time="14.50">
        <vehicle id="background.0" x="148.24" y="-1.60" angle="90.00" type="human" speed="13.85" pos="148.24" lane="e0_0" slope="0.00"/>
        <vehicle id="background.1" x="16.54" y="-1.60" angle="90.00" type="human" speed="11.49" pos="16.54" lane="e0_0" slope="0.00"/>
    </timestep>
    <timestep time="15.00">
        <vehicle id="background.0" x="154.98" y="-1.60" angle="90.00" type="human" speed="13.48" pos="154.98" lane="e0_0" slope="0.00"/>
        <vehicle id="background.1" x="22.33" y="-1.60" angle="90.00" type="human" speed="11.58" pos="22.33" lane="e0_0" slope="0.00"/>
    </timestep>
    <timestep time="15.50">
        <vehicle id="background.0" x="161.92" y="-1.60" angle="90.00" type="human" speed="13.88" pos="161.92" lane="e0_0" slope="0.00"/>
        <vehicle id="background.1" x="27.97" y="-1.60" angle="90.00" type="human" speed="11.27" pos="27.97" lane="e0_0" slope="0.00"/>
    </timestep>
    <timestep time="16.00">
        <vehicle id="background.0" x="168.71" y="-1.60" angle="90.00" type="human" speed="13.59" pos="168.71" lane="e0_0" slope="0.00"/>
        <vehicle id="background.1" x="33.56" y="-1.60" angle="90.00" type="human" speed="11.18" pos="33.56" lane="e0_0" slope="0.00"/>
    </timestep>
    <timestep time="16.50">
        <vehicle id="background.0" x="175.53" y="-1.60" angle="90.00" type="human" speed="13.62" pos="175.53" lane="e0_0" slope="0.00"/>
        <vehicle id="background.1" x="39.33" y="-1.60" angle="90.00" type="human" speed="11.55" pos="39.33" lane="e0_0" slope="0.00"/>
    </timestep>
    <timestep time="17.00">
        <vehicle id="background.0" x="182.33" y="-1.60" angle="90.00" type="human" speed="13.60" pos="182.33" lane="e0_0" slope="0.00"/>
        <vehicle id="background.1" x="45.15" y="-1.60" angle="90.00" type="human" speed="11.63" pos="45.15" lane="e0_0" slope="0.00"/>
    </timestep>
    <timestep time="17.50">
        <vehicle id="background.0" x="189.08" y="-1.60" angle="90.00" type="human" speed="13.50" pos="189.08" lane="e0_0" slope="0.00"/>
        <vehicle id="background.1" x="50.83" y="-1.60" angle="90.00" type="human" speed="11.37" pos="50.83" lane="e0_0" slope="0.00"/>
    </timestep>
    <timestep time="18.00">
        <vehicle id="background.0" x="195.78" y="-1.60" angle="90.00" type="human" speed="13.40" pos="195.78" lane="e0_0" slope="0.00"/>
        <vehicle id="background.1" x="56.48" y="-1.60" angle="90.00" type="human" speed="11.30" pos="56.48" lane="e0_0" slope="0.00"/>
    </timestep>
    <timestep time="18.50">
        <vehicle id="background.0" x="202.57" y="-1.60" angle="90.00" type="human" speed="13.58" pos="202.57" lane="e0_0" slope="0.00"/>
        <vehicle id="background.1" x="62.25" y="-1.60" angle="90.00" type="human" speed="11.53" pos="62.25" lane="e0_0" slope="0.00"/>
    </timestep>
    <timestep time="19.00">
        <vehicle id="background.0" x="209.28" y="-1.60" angle="90.00" type="human" speed="13.42" pos="209.28" lane="e0_0" slope="0.00"/>
        <vehicle id="background.1" x="67.91" y="-1.60" angle="90.00" type="human" speed="11.32" pos="67.91" lane="e0_0" slope="0.00"/>
    </timestep>
    <timestep time="19.50">
        <vehicle id="background.0" x="216.11" y="-1.60" angle="90.00" type="human" speed="13.67" pos="216.11" lane="e0_0" slope="0.00"/>
        <vehicle id="background.1" x="73.61" y="-1.60" angle="90.00" type="human" speed="11.41" pos="73.61" lane="e0_0" slope="0.00"/>
    </timestep>
    <timestep time="20.00">
        <vehicle id="background.0" x="222.86" y="-1.60" angle="90.00" type="human" speed="13.49" pos="222.86" lane="e0_0" slope="0.00"/>
        <vehicle id="background.1" x="79.44" y="-1.60" angle="90.00" type="human" speed="11.64" pos="79.44" lane="e0_0" slope="0.00"/>
    </timestep>
    <timestep time="20.50">
        <vehicle id="background.0" x="229.69" y="-1.60" angle="90.00" type="human" speed="13.66" pos="229.69" lane="e0_0" slope="0.00"/>
        <vehicle id="background.1" x="85.23" y="-1.60" angle="90.00" type="human" speed="11.60" pos="85.23" lane="e0_0" slope="0.00"/>
    </timestep>
    <timestep time="21.00">
        <vehicle id="background.0" x="236.43" y="-1.60" angle="90.00" type="human" speed="13.48" pos="236.43" lane="e0_0" slope="0.00"/>
        <vehicle id="background.1" x="91.02" y="-1.60" angle="90.00" type="human" speed="11.57" pos="91.02" lane="e0_0" slope="0.00"/>
    </timestep>
    <timestep time="21.50">
        <vehicle id="background.0" x="243.34" y="-1.60" angle="90.00" type="human" speed="13.82" pos="243.34" lane="e0_0" slope="0.00"/>
        <vehicle id="background.1" x="96.61" y="-1.60" angle="90.00" type="human" speed="11.17" pos="96.61" lane="e0_0" slope="0.00"/>
    </timestep>
    <timestep time="22.00">
        <vehicle id="background.0" x="250.13" y="-1.60" angle="90.00" type="human" speed="13.59" pos="250.13" lane="e0_0" slope="0.00"/>
        <vehicle id="background.1" x="102.31" y="-1.60" angle="90.00" type="human" speed="11.41" pos="102.31" lane="e0_0" slope="0.00"/>
    </timestep>
    <timestep time="22.50">
        <vehicle id="background.0" x="256.93" y="-1.60" angle="90.00" type="human" speed="13.59" pos="256.93" lane="e0_0" slope="0.00"/>
        <vehicle id="background.1" x="108.00" y="-1.60" angle="90.00" type="human" speed="11.38" pos="108.00" lane="e0_0" slope="0.00"/>
    </timestep>
    <timestep time="23.00">
        <vehicle id="background.0" x="263.77" y="-1.60" angle="90.00" type="human" speed="13.67" pos="263.77" lane="e0_0" slope="0.00"/>
        <vehicle id="background.1" x="113.65" y="-1.60" angle="90.00" type="human" speed="11.30" pos="113.65" lane="e0_0" slope="0.00"/>
    </timestep>
    <timestep time="23.50">
        <vehicle id="background.0" x="270.59" y="-1.60" angle="90.00" type="human" speed="13.64" pos="270.59" lane="e0_0" slope="0.00"/>
        <vehicle id="background.1" x="119.35" y="-1.60" angle="90.00" type="human" speed="11.40" pos="119.35" lane="e0_0" slope="0.00"/>
    </timestep>
    <timestep time="24.00">
        <vehicle id="background.0" x="277.35" y="-1.60" angle="90.00" type="human" speed="13.52" pos="277.35" lane="e0_0" slope="0.00"/>
        <vehicle id="background.1" x="124.95" y="-1.60" angle="90.00" type="human" speed="11.21" pos="124.95" lane="e0_0" slope="0.00"/>
    </timestep>
    <timestep time="24.50">
        <vehicle id="background.0" x="284.09" y="-1.60" angle="90.00" type="human" speed="13.48" pos="284.09" lane="e0_0" slope="0.00"/>
        <vehicle id="background.1" x="130.59" y="-1.60" angle="90.00" type="human" speed="11.26" pos="130.59" lane="e0_0" slope="0.00"/>
    </timestep>
    <timestep time="25.00">
        <vehicle id="background.0" x="291.01" y="-1.60" angle="90.00" type="human" speed="13.85" pos="291.01" lane="e0_0" slope="0.00"/>
        <vehicle id="background.1" x="136.32" y="-1.60" angle="90.00" type="human" speed="11.47" pos="136.32" lane="e0_0" slope="0.00"/>
    </timestep>
    <timestep time="25.50">
        <vehicle id="background.0" x="297.90" y="-1.60" angle="90.00" type="human" speed="13.78" pos="297.90" lane="e0_0" slope="0.00"/>
        <vehicle id="background.1" x="142.06" y="-1.60" angle="90.00" type="human" speed="11.49" pos="142.06" lane="e0_0" slope="0.00"/>
    </timestep>
    <timestep time="26.00">
        <vehicle id="background.0" x="304.58" y="-1.60" angle="90.00" type="human" speed="13.55" pos="4.58" lane="e1_0" slope="0.00"/>
        <vehicle id="background.1" x="147.66" y="-1.60" angle="90.00" type="human" speed="11.19" pos="147.66" lane="e0_0" slope="0.00"/>
        <vehicle id="background.2" x="5.10" y="-1.60" angle="90.00" type="human" speed="10.34" pos="5.10" lane="e0_0" slope="0.00"/>
    </timestep>
    <timestep time="26.50">
        <vehicle id="background.0" x="311.37" y="-1.60" angle="90.00" type="human" speed="13.59" pos="11.37" lane="e1_0" slope="0.00"/>
        <vehicle id="background.1" x="153.31" y="-1.60" angle="90.00" type="human" speed="11.31" pos="153.31" lane="e0_0" slope="0.00"/>
        <vehicle id="background.2" x="10.18" y="-1.60" angle="90.00" type="human" speed="10.17" pos="10.18" lane="e0_0" slope="0.00"/>
    </timestep>
    <timestep time="27.00">
        <vehicle id="background.0" x="318.22" y="-1.60" angle="90.00" type="human" speed="13.69" pos="18.22" lane="e1_0" slope="0.00"/>
        <vehicle id="background.1" x="158.98" y="-1.60" angle="90.00" type="human" speed="11.34" pos="158.98" lane="e0_0" slope="0.00"/>
        <vehicle id="background.2" x="15.14" y="-1.60" angle="90.00" type="human" speed="9.91" pos="15.14" lane="e0_0" slope="0.00"/>
    </timestep>
    <timestep time="27.50">
        <vehicle id="background.0" x="325.00" y="-1.60" angle="90.00" type="human" speed="13.55" pos="25.00" lane="e1_0" slope="0.00"/>
        <vehicle id="background.1" x="164.61" y="-1.60" angle="90.00" type="human" speed="11.25" pos="164.61" lane="e0_0" slope="0.00"/>
        <vehicle id="background.2" x="20.10" y="-1.60" angle="90.00" type="human" speed="9.92" pos="20.10" lane="e0_0" slope="0.00"/>
    </timestep>
    <timestep time="28.00">
        <vehicle id="background.0" x="331.83" y="-1.60" angle="90.00" type="human" speed="13.66" pos="31.83" lane="e1_0" slope="0.00"/>
        <vehicle id="background.1" x="170.41" y="-1.60" angle="90.00" type="human" speed="11.60" pos="170.41" lane="e0_0" slope="0.00"/>
        <vehicle id="background.2" x="25.14" y="-1.60" angle="90.00" type="human" speed="10.07" pos="25.14" lane="e0_0" slope="0.00"/>
    </timestep>
    <timestep time="28.50">
        <vehicle id="background.0" x="338.70" y="-1.60" angle="90.00" type="human" speed="13.74" pos="38.70" lane="e1_0" slope="0.00"/>
        <vehicle id="background.1" x="176.24" y="-1.60" angle="90.00" type="human" speed="11.66" pos="176.24" lane="e0_0" slope="0.00"/>
        <vehicle id="background.2" x="30.07" y="-1.60" angle="90.00" type="human" speed="9.88" pos="30.07" lane="e0_0" slope="0.00"/>
    </timestep>
    <timestep time="29.00">
        <vehicle id="background.0" x="345.56" y="-1.60" angle="90.00" type="human" speed="13.73" pos="45.56" lane="e1_0" slope="0.00"/>
        <vehicle id="background.1" x="181.99" y="-1.60" angle="90.00" type="human" speed="11.50" pos="181.99" lane="e0_0" slope="0.00"/>
        <vehicle id="background.2" x="35.22" y="-1.60" angle="90.00" type="human" speed="10.29" pos="35.22" lane="e0_0" slope="0.00"/>
        <vehicle id="background.3" x="5.10" y="-1.60" angle="90.00" type="human" speed="13.89" pos="5.10" lane="e0_0" slope="0.00"/>
    </timestep>
    <timestep time="29.50">
        <vehicle id="background.1" x="187.62" y="-1.60" angle="90.00" type="human" speed="11.27" pos="187.62" lane="e0_0" slope="0.00"/>
        <vehicle id="background.2" x="40.36" y="-1.60" angle="90.00" type="human" speed="10.29" pos="40.36" lane="e0_0" slope="0.00"/>
        <vehicle id="background.3" x="11.83" y="-1.60" angle="90.00" type="human" speed="13.46" pos="11.83" lane="e0_0" slope="0.00"/>
    </timestep>
    <timestep time="30.00">
        <vehicle id="background.1" x="193.28" y="-1.60" angle="90.00" type="human" speed="11.32" pos="193.28" lane="e0_0" slope="0.00"/>
        <vehicle id="background.2" x="45.43" y="-1.60" angle="90.00" type="human" speed="10.14" pos="45.43" lane="e0_0" slope="0.00"/>
        <vehicle id="background.3" x="18.35" y="-1.60" angle="90.00" type="human" speed="13.05" pos="18.35" lane="e0_0" slope="0.00"/>
    </timestep>
    <timestep time="30.50">
        <vehicle id="background.1" x="198.90" y="-1.60" angle="90.00" type="human" speed="11.24" pos="198.90" lane="e0_0" slope="0.00"/>
        <vehicle id="background.2" x="50.56" y="-1.60" angle="90.00" type="human" speed="10.26" pos="50.56" lane="e0_0" slope="0.00"/>
        <vehicle id="background.3" x="24.84" y="-1.60" angle="90.00" type="human" speed="12.96" pos="24.84" lane="e0_0" slope="0.00"/>
    </timestep>
    <timestep time="31.00">
        <vehicle id="background.1" x="204.66" y="-1.60" angle="90.00" type="human" speed="11.53" pos="204.66" lane="e0_0" slope="0.00"/>
        <vehicle id="background.2" x="55.51" y="-1.60" angle="90.00" type="human" speed="9.90" pos="55.51" lane="e0_0" slope="0.00"/>
        <vehicle id="background.3" x="31.01" y="-1.60" angle="90.00" type="human" speed="12.34" pos="31.01" lane="e0_0" slope="0.00"/>
    </timestep>
    <timestep time="31.50">
        <vehicle id="background.1" x="210.44" y="-1.60" angle="90.00" type="human" speed="11.56" pos="210.44" lane="e0_0" slope="0.00"/>
        <vehicle id="background.2" x="60.64" y="-1.60" angle="90.00" type="human" speed="10.26" pos="60.64" lane="e0_0" slope="0.00"/>
        <vehicle id="background.3" x="37.07" y="-1.60" angle="90.00" type="human" speed="12.12" pos="37.07" lane="e0_0" slope="0.00"/>
    </timestep>
    <timestep time="32.00">
        <vehicle id="background.1" x="216.10" y="-1.60" angle="90.00" type="human" speed="11.32" pos="216.10" lane="e0_0" slope="0.00"/>
        <vehicle id="background.2" x="65.70" y="-1.60" angle="90.00" type="human" speed="10.12" pos="65.70" lane="e0_0" slope="0.00"/>
        <vehicle id="background.3" x="42.97" y="-1.60" angle="90.00" type="human" speed="11.82" pos="42.97" lane="e0_0" slope="0.00"/>
    </timestep>
    <timestep time="32.50">
        <vehicle id="background.1" x="221.78" y="-1.60" angle="90.00" type="human" speed="11.36" pos="221.78" lane="e0_0" slope="0.00"/>
        <vehicle id="background.2" x="70.70" y="-1.60" angle="90.00" type="human" speed="10.00" pos="70.70" lane="e0_0" slope="0.00"/>
        <vehicle id="background.3" x="48.71" y="-1.60" angle="90.00" type="human" speed="11.47" pos="48.71" lane="e0_0" slope="0.00"/>
    </timestep>
    <timestep time="33.00">
        <vehicle id="background.1" x="227.49" y="-1.60" angle="90.00" type="human" speed="11.41" pos="227.49" lane="e0_0" slope="0.00"/>
        <vehicle id="background.2" x="75.77" y="-1.60" angle="90.00" type="human" speed="10.13" pos="75.77" lane="e0_0" slope="0.00"/>
        <vehicle id="background.3" x="54.43" y="-1.60" angle="90.00" type="human" speed="11.44" pos="54.43" lane="e0_0" slope="0.00"/>
    </timestep>
    <timestep time="33.50">
        <vehicle id="background.1" x="233.14" y="-1.60" angle="90.00" type="human" speed="11.30" pos="233.14" lane="e0_0" slope="0.00"/>
        <vehicle id="background.2" x="80.88" y="-1.60" angle="90.00" type="human" speed="10.23" pos="80.88" lane="e0_0" slope="0.00"/>
        <vehicle id="background.3" x="60.07" y="-1.60" angle="90.00" type="human" speed="11.28" pos="60.07" lane="e0_0" slope="0.00"/>
    </timestep>
    <timestep time="34.00">
        <vehicle id="background.1" x="238.83" y="-1.60" angle="90.00" type="human" speed="11.38" pos="238.83" lane="e0_0" slope="0.00"/>
        <vehicle id="background.2" x="85.83" y="-1.60" angle="90.00" type="human" speed="9.89" pos="85.83" lane="e0_0" slope="0.00"/>
        <vehicle id="background.3" x="65.67" y="-1.60" angle="90.00" type="human" speed="11.19" pos="65.67" lane="e0_0" slope="0.00"/>
    </timestep>
    <timestep time="34.50">
        <vehicle id="background.1" x="244.60" y="-1.60" angle="90.00" type="human" speed="11.55" pos="244.60" lane="e0_0" slope="0.00"/>
        <vehicle id="background.2" x="90.87" y="-1.60" angle="90.00" type="human" speed="10.09" pos="90.87" lane="e0_0" slope="0.00"/>
        <vehicle id="background.3" x="71.06" y="-1.60" angle="90.00" type="human" speed="10.78" pos="71.06" lane="e0_0" slope="0.00"/>
    </timestep>
    <timestep time="35.00">
        <vehicle id="background.1" x="250.40" y="-1.60" angle="90.00" type="human" speed="11.60" pos="250.40" lane="e0_0" slope="0.00"/>
        <vehicle id="background.2" x="95.87" y="-1.60" angle="90.00" type="human" speed="9.99" pos="95.87" lane="e0_0" slope="0.00"/>
        <vehicle id="background.3" x="76.46" y="-1.60" angle="90.00" type="human" speed="10.80" pos="76.46" lane="e0_0" slope="0.00"/>
    </timestep>
    <timestep time="35.50">
        <vehicle id="background.1" x="256.08" y="-1.60" angle="90.00" type="human" speed="11.36" pos="256.08" lane="e0_0" slope="0.00"/>
        <vehicle id="background.2" x="100.99" y="-1.60" angle="90.00" type="human" speed="10.25" pos="100.99" lane="e0_0" slope="0.00"/>
        <vehicle id="background.3" x="81.65" y="-1.60" angle="90.00" type="human" speed="10.38" pos="81.65" lane="e0_0" slope="0.00"/>
        <vehicle id="background.4" x="5.10" y="-1.60" angle="90.00" type="human" speed="13.61" pos="5.10" lane="e0_0" slope="0.00"/>
    </timestep>
    <timestep time="36.00">
        <vehicle id="background.1" x="261.80" y="-1.60" angle="90.00" type="human" speed="11.45" pos="261.80" lane="e0_0" slope="0.00"/>
        <vehicle id="background.2" x="106.03" y="-1.60" angle="90.00" type="human" speed="10.06" pos="106.03" lane="e0_0" slope="0.00"/>
        <vehicle id="background.3" x="86.82" y="-1.60" angle="90.00" type="human" speed="10.34" pos="86.82" lane="e0_0" slope="0.00"/>
        <vehicle id="background.4" x="11.70" y="-1.60" angle="90.00" type="human" speed="13.19" pos="11.70" lane="e0_0" slope="0.00"/>
    </timestep>
    <timestep time="36.50">
        <vehicle id="background.1" x="267.40" y="-1.60" angle="90.00" type="human" speed="11.19" pos="267.40" lane="e0_0" slope="0.00"/>
        <vehicle id="background.2" x="111.03" y="-1.60" angle="90.00" type="human" speed="10.01" pos="111.03" lane="e0_0" slope="0.00"/>
        <vehicle id="background.3" x="92.01" y="-1.60" angle="90.00" type="human" speed="10.37" pos="92.01" lane="e0_0" slope="0.00"/>
        <vehicle id="background.4" x="18.43" y="-1.60" angle="90.00" type="human" speed="13.47" pos="18.43" lane="e0_0" slope="0.00"/>
    </timestep>
    <timestep time="37.00">
        <vehicle id="background.1" x="273.12" y="-1.60" angle="90.00" type="human" speed="11.44" pos="273.12" lane="e0_0" slope="0.00"/>
        <vehicle id="background.2" x="116.09" y="-1.60" angle="90.00" type="human" speed="10.11" pos="116.09" lane="e0_0" slope="0.00"/>
        <vehicle id="background.3" x="97.11" y="-1.60" angle="90.00" type="human" speed="10.19" pos="97.11" lane="e0_0" slope="0.00"/>
        <vehicle id="background.4" x="25.03" y="-1.60" angle="90.00" type="human" speed="13.20" pos="25.03" lane="e0_0" slope="0.00"/>
    </timestep>
    <timestep time="37.50">
        <vehicle id="background.1" x="278.87" y="-1.60" angle="90.00" type="human" speed="11.51" pos="278.87" lane="e0_0" slope="0.00"/>
        <vehicle id="background.2" x="121.06" y="-1.60" angle="90.00" type="human" speed="9.95" pos="121.06" lane="e0_0" slope="0.00"/>
        <vehicle id="background.3" x="102.36" y="-1.60" angle="90.00" type="human" speed="10.51" pos="102.36" lane="e0_0" slope="0.00"/>
        <vehicle id="background.4" x="31.71" y="-1.60" angle="90.00" type="human" speed="13.36" pos="31.71" lane="e0_0" slope="0.00"/>
    </timestep>
    <timestep time="38.00">
        <vehicle id="background.1" x="284.69" y="-1.60" angle="90.00" type="human" speed="11.64" pos="284.69" lane="e0_0" slope="0.00"/>
        <vehicle id="background.2" x="126.07" y="-1.60" angle="90.00" type="human" speed="10.02" pos="126.07" lane="e0_0" slope="0.00"/>
        <vehicle id="background.3" x="107.39" y="-1.60" angle="90.00" type="human" speed="10.05" pos="107.39" lane="e0_0" slope="0.00"/>
        <vehicle id="background.4" x="38.36" y="-1.60" angle="90.00" type="human" speed="13.30" pos="38.36" lane="e0_0" slope="0.00"/>
    </timestep>
    <timestep time="38.50">
        <vehicle id="background.1" x="290.32" y="-1.60" angle="90.00" type="human" speed="11.26" pos="290.32" lane="e0_0" slope="0.00"/>
        <vehicle id="background.2" x="131.01" y="-1.60" angle="90.00" type="human" speed="9.87" pos="131.01" lane="e0_0" slope="0.00"/>
        <vehicle id="background.3" x="112.42" y="-1.60" angle="90.00" type="human" speed="10.08" pos="112.42" lane="e0_0" slope="0.00"/>
        <vehicle id="background.4" x="44.96" y="-1.60" angle="90.00" type="human" speed="13.22" pos="44.96" lane="e0_0" slope="0.00"/>
    </timestep>
    <timestep time="39.00">
        <vehicle id="background.1" x="295.99" y="-1.60" angle="90.00" type="human" speed="11.34" pos="295.99" lane="e0_0" slope="0.00"/>
        <vehicle id="background.2" x="136.09" y="-1.60" angle="90.00" type="human" speed="10.17" pos="136.09" lane="e0_0" slope="0.00"/>
        <vehicle id="background.3" x="117.45" y="-1.60" angle="90.00" type="human" speed="10.06" pos="117.45" lane="e0_0" slope="0.00"/>
        <vehicle id="background.4" x="51.52" y="-1.60" angle="90.00" type="human" speed="13.12" pos="51.52" lane="e0_0" slope="0.00"/>
    </timestep>
    <timestep time="39.50">
        <vehicle id="background.1" x="301.56" y="-1.60" angle="90.00" type="human" speed="11.34" pos="1.56" lane="e1_0" slope="0.00"/>
        <vehicle id="background.2" x="141.20" y="-1.60" angle="90.00" type="human" speed="10.22" pos="141.20" lane="e0_0" slope="0.00"/>
        <vehicle id="background.3" x="122.65" y="-1.60" angle="90.00" type="human" speed="10.39" pos="122.65" lane="e0_0" slope="0.00"/>
        <vehicle id="background.4" x="58.29" y="-1.60" angle="90.00" type="human" speed="13.53" pos="58.29" lane="e0_0" slope="0.00"/>
    </timestep>
    <timestep time="40.00">
        <vehicle id="background.1" x="307.27" y="-1.60" angle="90.00" type="human" speed="11.41" pos="7.27" lane="e1_0" slope="0.00"/>
        <vehicle id="background.2" x="146.21" y="-1.60" angle="90.00" type="human" speed="10.01" pos="146.21" lane="e0_0" slope="0.00"/>
        <vehicle id="background.3" x="127.75" y="-1.60" angle="90.00" type="human" speed="10.21" pos="127.75" lane="e0_0" slope="0.00"/>
        <vehicle id="background.4" x="64.96" y="-1.60" angle="90.00" type="human" speed="13.34" pos="64.96" lane="e0_0" slope="0.00"/>
    </timestep>
    <timestep time="40.50">
        <vehicle id="background.1" x="312.96" y="-1.60" angle="90.00" type="human" speed="11.38" pos="12.96" lane="e1_0" slope="0.00"/>
        <vehicle id="background.2" x="151.31" y="-1.60" angle="90.00" type="human" speed="10.20" pos="151.31" lane="e0_0" slope="0.00"/>
        <vehicle id="background.3" x="132.73" y="-1.60" angle="90.00" type="human" speed="9.95" pos="132.73" lane="e0_0" slope="0.00"/>
        <vehicle id="background.4" x="71.66" y="-1.60" angle="90.00" type="human" speed="13.41" pos="71.66" lane="e0_0" slope="0.00"/>
    </timestep>
    <timestep time="41.00">
        <vehicle id="background.1" x="318.75" y="-1.60" angle="90.00" type="human" speed="11.58" pos="18.75" lane="e1_0" slope="0.00"/>
        <vehicle id="background.2" x="156.45" y="-1.60" angle="90.00" type="human" speed="10.29" pos="156.45" lane="e0_0" slope="0.00"/>
        <vehicle id="background.3" x="137.93" y="-1.60" angle="90.00" type="human" speed="10.40" pos="137.93" lane="e0_0" slope="0.00"/>
        <vehicle id="background.4" x="78.27" y="-1.60" angle="90.00" type="human" speed="13.22" pos="78.27" lane="e0_0" slope="0.00"/>
    </timestep>
    <timestep time="41.50">
        <vehicle id="background.1" x="324.38" y="-1.60" angle="90.00" type="human" speed="11.26" pos="24.38" lane="e1_0" slope="0.00"/>
        <vehicle id="background.2" x="161.55" y="-1.60" angle="90.00" type="human" speed="10.20" pos="161.55" lane="e0_0" slope="0.00"/>
        <vehicle id="background.3" x="143.02" y="-1.60" angle="90.00" type="human" speed="10.19" pos="143.02" lane="e0_0" slope="0.00"/>
        <vehicle id="background.4" x="84.86" y="-1.60" angle="90.00" type="human" speed="13.17" pos="84.86" lane="e0_0" slope="0.00"/>
    </timestep>
    <timestep time="42.00">
        <vehicle id="background.1" x="330.08" y="-1.60" angle="90.00" type="human" speed="11.40" pos="30.08" lane="e1_0" slope="0.00"/>
        <vehicle id="background.2" x="166.55" y="-1.60" angle="90.00" type="human" speed="9.99" pos="166.55" lane="e0_0" slope="0.00"/>
        <vehicle id="background.3" x="148.12" y="-1.60" angle="90.00" type="human" speed="10.19" pos="148.12" lane="e0_0" slope="0.00"/>
        <vehicle id="background.4" x="91.54" y="-1.60" angle="90.00" type="human" speed="13.36" pos="91.54" lane="e0_0" slope="0.00"/>
    </timestep>
    <timestep time="42.50">
        <vehicle id="background.1" x="335.87" y="-1.60" angle="90.00" type="human" speed="11.58" pos="35.87" lane="e1_0" slope="0.00"/>
        <vehicle id="background.2" x="171.63" y="-1.60" angle="90.00" type="human" speed="10.15" pos="171.63" lane="e0_0" slope="0.00"/>