<?xml version="1.0" encoding="UTF-8"?>

<!-- generated on 2026-05-14 17:04:29 by Eclipse SUMO sumo Version 1.24.0
<sumoConfiguration xmlns:xsi="http://www.w3.org/2001/XMLSchema-instance" xsi:noNamespaceSchemaLocation="http://sumo.dlr.de/xsd/sumoConfiguration.xsd">

    <input>
        <net-file value="scenarios/simple_arterial/simple_arterial.net.xml"/>
        <route-files value="scenarios/simple_arterial/simple_arterial.rou.xml"/>
        <additional-files value="scenarios/simple_arterial/simple_arterial.tls.xml"/>
    </input>

    <output>
        <fcd-output value="runs/fcd_expert_default/episode_00036_seed_78.fcd.xml"/>
    </output>

    <time>
        <begin value="0"/>
        <end value="900"/>
        <step-length value="0.5"/>
    </time>

    <report>
        <no-warnings value="true"/>
    </report>

    <traci_server>
        <remote-port value="24542"/>
    </traci_server>

    <random_number>
        <seed value="78"/>
    </random_number>

</sumoConfiguration>
-->

<fcd-export xmlns:xsi="http://www.w3.org/2001/XMLSchema-instance" xsi:noNamespaceSchemaLocation="http://sumo.dlr.de/xsd/fcd_file.xsd">
    <timestep time="0.00"/>
    <timestep time="0.50"/>
    <timestep time="1.00"/>
    <timestep time="1.50"/>
    <timestep time="2.00"/>
    <timestep time="2.50"/>
    <timestep time="3.00"/>
    <timestep time="3.50"/>
    <timestep time="4.00"/>
    <timestep time="4.50"/>
    <timestep time="5.00"/>
    <timestep time="5.50"/>
    <timestep time="6.00"/>
    <timestep time="6.50"/>
    <timestep time="7.00"/>
    <timestep time="7.50"/>
    <timestep time="8.00"/>
    <timestep time="8.50"/>
    <timestep time="9.00"/>
    <timestep time="9.50"/>
    <timestep time="10.00"/>
    <timestep time="10.50"/>
    <timestep time="11.00"/>
    <timestep time="11.50"/>
    <timestep time="12.00"/>
    <timestep time="12.50"/>
    <timestep time="13.00"/>
    <timestep time="13.50"/>
    <timestep time="14.00"/>
    <timestep time="14.50"/>
    <timestep time="15.00"/>
    <timestep time="15.50"/>
    <timestep time="16.00"/>
    <timestep time="16.50"/>
    <timestep time="17.00"/>
    <timestep time="17.50"/>
    <timestep time="18.00"/>
    <timestep time="18.50"/>
    <timestep time="19.00"/>
    <timestep time="19.50"/>
    <timestep time="20.00"/>
    <timestep time="20.50"/>
    <timestep time="21.00"/>
    <timestep time="21.50"/>
    <timestep time="22.00"/>
    <timestep time="22.50"/>
    <timestep time="23.00"/>
    <timestep time="23.50"/>
    <timestep time="24.00"/>
    <timestep time="24.50"/>
    <timestep time="25.00"/>
    <timestep time="25.50"/>
    <timestep time="26.00"/>
    <timestep time="26.50"/>
    <timestep time="27.00">
        <vehicle id="background.0" x="5.10" y="-1.60" angle="90.00" type="human" speed="13.89" pos="5.10" lane="e0_0" slope="0.00"/>
    </timestep>
    <timestep time="27.50">
        <vehicle id="background.0" x="11.92" y="-1.60" angle="90.00" type="human" speed="13.64" pos="11.92" lane="e0_0" slope="0.00"/>
    </timestep>
    <timestep time="28.00">
        <vehicle id="background.0" x="18.76" y="-1.60" angle="90.00" type="human" speed="13.69" pos="18.76" lane="e0_0" slope="0.00"/>
    </timestep>
    <timestep time="28.50">
        <vehicle id="background.0" x="25.59" y="-1.60" angle="90.00" type="human" speed="13.66" pos="25.59" lane="e0_0" slope="0.00"/>
    </timestep>
    <timestep time="29.00">
        <vehicle id="background.0" x="32.42" y="-1.60" angle="90.00" type="human" speed="13.66" pos="32.42" lane="e0_0" slope="0.00"/>
    </timestep>
    <timestep time="29.50">
        <vehicle id="background.0" x="39.24" y="-1.60" angle="90.00" type="human" speed="13.64" pos="39.24" lane="e0_0" slope="0.00"/>
    </timestep>
    <timestep time="30.00">
        <vehicle id="background.0" x="45.98" y="-1.60" angle="90.00" type="human" speed="13.48" pos="45.98" lane="e0_0" slope="0.00"/>
    </timestep>
    <timestep time="30.50">
        <vehicle id="background.0" x="52.89" y="-1.60" angle="90.00" type="human" speed="13.82" pos="52.89" lane="e0_0" slope="0.00"/>
    </timestep>
    <timestep time="31.00">
        <vehicle id="background.0" x="59.73" y="-1.60" angle="90.00" type="human" speed="13.67" pos="59.73" lane="e0_0" slope="0.00"/>
    </timestep>
    <timestep time="31.50">
        <vehicle id="background.0" x="66.47" y="-1.60" angle="90.00" type="human" speed="13.48" pos="66.47" lane="e0_0" slope="0.00"/>
    </timestep>
    <timestep time="32.00">
        <vehicle id="background.0" x="73.19" y="-1.60" angle="90.00" type="human" speed="13.45" pos="73.19" lane="e0_0" slope="0.00"/>
    </timestep>
    <timestep time="32.50">
        <vehicle id="background.0" x="80.06" y="-1.60" angle="90.00" type="human" speed="13.73" pos="80.06" lane="e0_0" slope="0.00"/>
    </timestep>
    <timestep time="33.00">
        <vehicle id="background.0" x="86.96" y="-1.60" angle="90.00" type="human" speed="13.80" pos="86.96" lane="e0_0" slope="0.00"/>
    </timestep>
    <timestep time="33.50">
        <vehicle id="background.0" x="93.71" y="-1.60" angle="90.00" type="human" speed="13.50" pos="93.71" lane="e0_0" slope="0.00"/>
    </timestep>
    <timestep time="34.00">
        <vehicle id="background.0" x="100.50" y="-1.60" angle="90.00" type="human" speed="13.59" pos="100.50" lane="e0_0" slope="0.00"/>
    </timestep>
    <timestep time="34.50">
        <vehicle id="background.0" x="107.24" y="-1.60" angle="90.00" type="human" speed="13.48" pos="107.24" lane="e0_0" slope="0.00"/>
    </timestep>
    <timestep time="35.00">
        <vehicle id="background.0" x="114.17" y="-1.60" angle="90.00" type="human" speed="13.86" pos="114.17" lane="e0_0" slope="0.00"/>
    </timestep>
    <timestep time="35.50">
        <vehicle id="background.0" x="121.11" y="-1.60" angle="90.00" type="human" speed="13.88" pos="121.11" lane="e0_0" slope="0.00"/>
    </timestep>
    <timestep time="36.00">
        <vehicle id="background.0" x="128.05" y="-1.60" angle="90.00" type="human" speed="13.88" pos="128.05" lane="e0_0" slope="0.00"/>
    </timestep>
    <timestep time="36.50">
        <vehicle id="background.0" x="134.94" y="-1.60" angle="90.00" type="human" speed="13.78" pos="134.94" lane="e0_0" slope="0.00"/>
    </timestep>
    <timestep time="37.00">
        <vehicle id="background.0" x="141.87" y="-1.60" angle="90.00" type="human" speed="13.85" pos="141.87" lane="e0_0" slope="0.00"/>
    </timestep>
    <timestep time="37.50">
        <vehicle id="background.0" x="148.63" y="-1.60" angle="90.00" type="human" speed="13.53" pos="148.63" lane="e0_0" slope="0.00"/>
    </timestep>
    <timestep time="38.00">
        <vehicle id="background.0" x="155.33" y="-1.60" angle="90.00" type="human" speed="13.39" pos="155.33" lane="e0_0" slope="0.00"/>
        <vehicle id="ego" x="5.10" y="-1.60" angle="90.00" type="ego_type" speed="0.00" pos="5.10" lane="e0_0" slope="0.00"/>
    </timestep>
    <timestep time="38.50">
        <vehicle id="background.0" x="162.07" y="-1.60" angle="90.00" type="human" speed="13.48" pos="162.07" lane="e0_0" slope="0.00"/>
        <vehicle id="ego" x="5.60" y="-1.60" angle="90.00" type="ego_type" speed="1.00" pos="5.60" lane="e0_0" slope="0.00"/>
    </timestep>
    <timestep time="39.00">
        <vehicle id="background.0" x="168.81" y="-1.60" angle="90.00" type="human" speed="13.49" pos="168.81" lane="e0_0" slope="0.00"/>
        <vehicle id="ego" x="6.60" y="-1.60" angle="90.00" type="ego_type" speed="2.00" pos="6.60" lane="e0_0" slope="0.00"/>
    </timestep>
    <timestep time="39.50">
        <vehicle id="background.0" x="175.64" y="-1.60" angle="90.00" type="human" speed="13.64" pos="175.64" lane="e0_0" slope="0.00"/>
        <vehicle id="ego" x="8.10" y="-1.60" angle="90.00" type="ego_type" speed="3.00" pos="8.10" lane="e0_0" slope="0.00"/>
    </timestep>
    <timestep time="40.00">
        <vehicle id="background.0" x="182.44" y="-1.60" angle="90.00" type="human" speed="13.61" pos="182.44" lane="e0_0" slope="0.00"/>
        <vehicle id="ego" x="10.10" y="-1.60" angle="90.00" type="ego_type" speed="4.00" pos="10.10" lane="e0_0" slope="0.00"/>
    </timestep>
    <timestep time="40.50">
        <vehicle id="background.0" x="189.26" y="-1.60" angle="90.00" type="human" speed="13.63" pos="189.26" lane="e0_0" slope="0.00"/>
        <vehicle id="background.1" x="5.10" y="-1.60" angle="90.00" type="human" speed="1.62" pos="5.10" lane="e0_0" slope="0.00"/>
        <vehicle id="ego" x="12.60" y="-1.60" angle="90.00" type="ego_type" speed="5.00" pos="12.60" lane="e0_0" slope="0.00"/>
    </timestep>
    <timestep time="41.00">
        <vehicle id="background.0" x="196.13" y="-1.60" angle="90.00" type="human" speed="13.75" pos="196.13" lane="e0_0" slope="0.00"/>
        <vehicle id="background.1" x="5.87" y="-1.60" angle="90.00" type="human" speed="1.55" pos="5.87" lane="e0_0" slope="0.00"/>
        <vehicle id="ego" x="15.60" y="-1.60" angle="90.00" type="ego_type" speed="6.00" pos="15.60" lane="e0_0" slope="0.00"/>
    </timestep>
    <timestep time="41.50">
        <vehicle id="background.0" x="203.01" y="-1.60" angle="90.00" type="human" speed="13.76" pos="203.01" lane="e0_0" slope="0.00"/>
        <vehicle id="background.1" x="6.98" y="-1.60" angle="90.00" type="human" speed="2.22" pos="6.98" lane="e0_0" slope="0.00"/>
        <vehicle id="ego" x="19.10" y="-1.60" angle="90.00" type="ego_type" speed="7.00" pos="19.10" lane="e0_0" slope="0.00"/>
    </timestep>
    <timestep time="42.00">
        <vehicle id="background.0" x="209.89" y="-1.60" angle="90.00" type="human" speed="13.76" pos="209.89" lane="e0_0" slope="0.00"/>
        <vehicle id="background.1" x="8.54" y="-1.60" angle="90.00" type="human" speed="3.11" pos="8.54" lane="e0_0" slope="0.00"/>
        <vehicle id="ego" x="23.10" y="-1.60" angle="90.00" type="ego_type" speed="8.00" pos="23.10" lane="e0_0" slope="0.00"/>
    </timestep>
    <timestep time="42.50">
        <vehicle id="background.0" x="216.60" y="-1.60" angle="90.00" type="human" speed="13.41" pos="216.60" lane="e0_0" slope="0.00"/>
        <vehicle id="background.1" x="10.45" y="-1.60" angle="90.00" type="human" speed="3.83" pos="10.45" lane="e0_0" slope="0.00"/>
        <vehicle id="ego" x="27.60" y="-1.60" angle="90.00" type="ego_type" speed="9.00" pos="27.60" lane="e0_0" slope="0.00"/>
    </timestep>
    <timestep time="43.00">
        <vehicle id="background.0" x="223.41" y="-1.60" angle="90.00" type="human" speed="13.63" pos="223.41" lane="e0_0" slope="0.00"/>
        <vehicle id="background.1" x="12.87" y="-1.60" angle="90.00" type="human" speed="4.83" pos="12.87" lane="e0_0" slope="0.00"/>
        <vehicle id="ego" x="32.60" y="-1.60" angle="90.00" type="ego_type" speed="10.00" pos="32.60" lane="e0_0" slope="0.00"/>
    </timestep>
    <timestep time="43.50">
        <vehicle id="background.0" x="230.34" y="-1.60" angle="90.00" type="human" speed="13.87" pos="230.34" lane="e0_0" slope="0.00"/>
        <vehicle id="background.1" x="15.57" y="-1.60" angle="90.00" type="human" speed="5.41" pos="15.57" lane="e0_0" slope="0.00"/>
        <vehicle id="ego" x="38.10" y="-1.60" angle="90.00" type="ego_type" speed="11.00" pos="38.10" lane="e0_0" slope="0.00"/>
    </timestep>
    <timestep time="44.00">
        <vehicle id="background.0" x="237.07" y="-1.60" angle="90.00" type="human" speed="13.46" pos="237.07" lane="e0_0" slope="0.00"/>
        <vehicle id="background.1" x="18.58" y="-1.60" angle="90.00" type="human" speed="6.02" pos="18.58" lane="e0_0" slope="0.00"/>
        <vehicle id="ego" x="44.10" y="-1.60" angle="90.00" type="ego_type" speed="12.00" pos="44.10" lane="e0_0" slope="0.00"/>
    </timestep>
    <timestep time="44.50">
        <vehicle id="background.0" x="243.99" y="-1.60" angle="90.00" type="human" speed="13.84" pos="243.99" lane="e0_0" slope="0.00"/>
        <vehicle id="background.1" x="21.93" y="-1.60" angle="90.00" type="human" speed="6.71" pos="21.93" lane="e0_0" slope="0.00"/>
        <vehicle id="ego" x="50.60" y="-1.60" angle="90.00" type="ego_type" speed="13.00" pos="50.60" lane="e0_0" slope="0.00"/>
    </timestep>
    <timestep time="45.00">
        <vehicle id="background.0" x="250.70" y="-1.60" angle="90.00" type="human" speed="13.42" pos="250.70" lane="e0_0" slope="0.00"/>
        <vehicle id="background.1" x="25.54" y="-1.60" angle="90.00" type="human" speed="7.22" pos="25.54" lane="e0_0" slope="0.00"/>
        <vehicle id="ego" x="57.55" y="-1.60" angle="90.00" type="ego_type" speed="13.89" pos="57.55" lane="e0_0" slope="0.00"/>
    </timestep>
    <timestep time="45.50">
        <vehicle id="background.0" x="257.60" y="-1.60" angle="90.00" type="human" speed="13.80" pos="257.60" lane="e0_0" slope="0.00"/>
        <vehicle id="background.1" x="29.60" y="-1.60" angle="90.00" type="human" speed="8.11" pos="29.60" lane="e0_0" slope="0.00"/>
        <vehicle id="ego" x="64.49" y="-1.60" angle="90.00" type="ego_type" speed="13.89" pos="64.49" lane="e0_0" slope="0.00"/>
    </timestep>
    <timestep time="46.00">
        <vehicle id="background.0" x="264.42" y="-1.60" angle="90.00" type="human" speed="13.62" pos="264.42" lane="e0_0" slope="0.00"/>
        <vehicle id="background.1" x="33.97" y="-1.60" angle="90.00" type="human" speed="8.73" pos="33.97" lane="e0_0" slope="0.00"/>
        <vehicle id="ego" x="71.44" y="-1.60" angle="90.00" type="ego_type" speed="13.89" pos="71.44" lane="e0_0" slope="0.00"/>
    </timestep>
    <timestep time="46.50">
        <vehicle id="background.0" x="271.15" y="-1.60" angle="90.00" type="human" speed="13.47" pos="271.15" lane="e0_0" slope="0.00"/>
        <vehicle id="background.1" x="38.78" y="-1.60" angle="90.00" type="human" speed="9.63" pos="38.78" lane="e0_0" slope="0.00"/>
        <vehicle id="ego" x="78.38" y="-1.60" angle="90.00" type="ego_type" speed="13.89" pos="78.38" lane="e0_0" slope="0.00"/>
    </timestep>
    <timestep time="47.00">
        <vehicle id="background.0" x="277.92" y="-1.60" angle="90.00" type="human" speed="13.54" pos="277.92" lane="e0_0" slope="0.00"/>
        <vehicle id="background.1" x="44.05" y="-1.60" angle="90.00" type="human" speed="10.53" pos="44.05" lane="e0_0" slope="0.00"/>
        <vehicle id="ego" x="85.32" y="-1.60" angle="90.00" type="ego_type" speed="13.89" pos="85.32" lane="e0_0" slope="0.00"/>
    </timestep>
    <timestep time="47.50">
        <vehicle id="background.0" x="284.08" y="-1.60" angle="90.00" type="human" speed="12.30" pos="284.08" lane="e0_0" slope="0.00"/>
        <vehicle id="background.1" x="49.66" y="-1.60" angle="90.00" type="human" speed="11.23" pos="49.66" lane="e0_0" slope="0.00"/>
        <vehicle id="ego" x="92.27" y="-1.60" angle="90.00" type="ego_type" speed="13.89" pos="92.27" lane="e0_0" slope="0.00"/>
    </timestep>
    <timestep time="48.00">
        <vehicle id="background.0" x="289.20" y="-1.60" angle="90.00" type="human" speed="10.25" pos="289.20" lane="e0_0" slope="0.00"/>
        <vehicle id="background.1" x="55.61" y="-1.60" angle="90.00" type="human" speed="11.91" pos="55.61" lane="e0_0" slope="0.00"/>
        <vehicle id="ego" x="99.21" y="-1.60" angle="90.00" type="ego_type" speed="13.89" pos="99.21" lane="e0_0" slope="0.00"/>
    </timestep>
    <timestep time="48.50">
        <vehicle id="background.0" x="293.26" y="-1.60" angle="90.00" type="human" speed="8.12" pos="293.26" lane="e0_0" slope="0.00"/>
        <vehicle id="background.1" x="61.97" y="-1.60" angle="90.00" type="human" speed="12.72" pos="61.97" lane="e0_0" slope="0.00"/>
        <vehicle id="ego" x="106.16" y="-1.60" angle="90.00" type="ego_type" speed="13.89" pos="106.16" lane="e0_0" slope="0.00"/>
    </timestep>
    <timestep time="49.00">
        <vehicle id="background.0" x="296.19" y="-1.60" angle="90.00" type="human" speed="5.87" pos="296.19" lane="e0_0" slope="0.00"/>
        <vehicle id="background.1" x="68.74" y="-1.60" angle="90.00" type="human" speed="13.53" pos="68.74" lane="e0_0" slope="0.00"/>
        <vehicle id="ego" x="113.10" y="-1.60" angle="90.00" type="ego_type" speed="13.89" pos="113.10" lane="e0_0" slope="0.00"/>
    </timestep>
    <timestep time="49.50">
        <vehicle id="background.0" x="298.00" y="-1.60" angle="90.00" type="human" speed="3.62" pos="298.00" lane="e0_0" slope="0.00"/>
        <vehicle id="background.1" x="75.54" y="-1.60" angle="90.00" type="human" speed="13.61" pos="75.54" lane="e0_0" slope="0.00"/>
        <vehicle id="ego" x="120.05" y="-1.60" angle="90.00" type="ego_type" speed="13.89" pos="120.05" lane="e0_0" slope="0.00"/>
    </timestep>
    <timestep time="50.00">
        <vehicle id="background.0" x="298.96" y="-1.60" angle="90.00" type="human" speed="1.91" pos="298.96" lane="e0_0" slope="0.00"/>
        <vehicle id="background.1" x="82.38" y="-1.60" angle="90.00" type="human" speed="13.67" pos="82.38" lane="e0_0" slope="0.00"/>
        <vehicle id="ego" x="126.99" y="-1.60" angle="90.00" type="ego_type" speed="13.89" pos="126.99" lane="e0_0" slope="0.00"/>
    </timestep>
    <timestep time="50.50">
        <vehicle id="background.0" x="298.99" y="-1.60" angle="90.00" type="human" speed="0.07" pos="298.99" lane="e0_0" slope="0.00"/>
        <vehicle id="background.1" x="89.16" y="-1.60" angle="90.00" type="human" speed="13.56" pos="89.16" lane="e0_0" slope="0.00"/>
        <vehicle id="ego" x="133.94" y="-1.60" angle="90.00" type="ego_type" speed="13.89" pos="133.94" lane="e0_0" slope="0.00"/>
    </timestep>
    <timestep time="51.00">
        <vehicle id="background.0" x="299.00" y="-1.60" angle="90.00" type="human" speed="0.01" pos="299.00" lane="e0_0" slope="0.00"/>
        <vehicle id="background.1" x="96.03" y="-1.60" angle="90.00" type="human" speed="13.73" pos="96.03" lane="e0_0" slope="0.00"/>
        <vehicle id="ego" x="140.88" y="-1.60" angle="90.00" type="ego_type" speed="13.89" pos="140.88" lane="e0_0" slope="0.00"/>
    </timestep>
    <timestep time="51.50">
        <vehicle id="background.0" x="299.00" y="-1.60" angle="90.00" type="human" speed="0.00" pos="299.00" lane="e0_0" slope="0.00"/>
        <vehicle id="background.1" x="102.90" y="-1.60" angle="90.00" type="human" speed="13.75" pos="102.90" lane="e0_0" slope="0.00"/>
        <vehicle id="ego" x="147.83" y="-1.60" angle="90.00" type="ego_type" speed="13.89" pos="147.83" lane="e0_0" slope="0.00"/>
    </timestep>
    <timestep time="52.00">
        <vehicle id="background.0" x="299.00" y="-1.60" angle="90.00" type="human" speed="0.00" pos="299.00" lane="e0_0" slope="0.00"/>
        <vehicle id="background.1" x="109.68" y="-1.60" angle="90.00" type="human" speed="13.57" pos="109.68" lane="e0_0" slope="0.00"/>
        <vehicle id="ego" x="154.77" y="-1.60" angle="90.00" type="ego_type" speed="13.89" pos="154.77" lane="e0_0" slope="0.00"/>
    </timestep>
    <timestep time="52.50">
        <vehicle id="background.0" x="299.00" y="-1.60" angle="90.00" type="human" speed="0.00" pos="299.00" lane="e0_0" slope="0.00"/>
        <vehicle id="background.1" x="116.44" y="-1.60" angle="90.00" type="human" speed="13.51" pos="116.44" lane="e0_0" slope="0.00"/>
        <vehicle id="ego" x="161.72" y="-1.60" angle="90.00" type="ego_type" speed="13.89" pos="161.72" lane="e0_0" slope="0.00"/>
    </timestep>
    <timestep time="53.00">
        <vehicle id="background.0" x="299.00" y="-1.60" angle="90.00" type="human" speed="0.00" pos="299.00" lane="e0_0" slope="0.00"/>
        <vehicle id="background.1" x="123.24" y="-1.60" angle="90.00" type="human" speed="13.60" pos="123.24" lane="e0_0" slope="0.00"/>
        <vehicle id="ego" x="168.66" y="-1.60" angle="90.00" type="ego_type" speed="13.89" pos="168.66" lane="e0_0" slope="0.00"/>
    </timestep>
    <timestep time="53.50">
        <vehicle id="background.0" x="299.00" y="-1.60" angle="90.00" type="human" speed="0.00" pos="299.00" lane="e0_0" slope="0.00"/>
        <vehicle id="background.1" x="130.01" y="-1.60" angle="90.00" type="human" speed="13.55" pos="130.01" lane="e0_0" slope="0.00"/>
        <vehicle id="ego" x="175.61" y="-1.60" angle="90.00" type="ego_type" speed="13.89" pos="175.61" lane="e0_0" slope="0.00"/>
    </timestep>
    <timestep time="54.00">
        <vehicle id="background.0" x="299.00" y="-1.60" angle="90.00" type="human" speed="0.00" pos="299.00" lane="e0_0" slope="0.00"/>
        <vehicle id="background.1" x="136.76" y="-1.60" angle="90.00" type="human" speed="13.49" pos="136.76" lane="e0_0" slope="0.00"/>
        <vehicle id="ego" x="182.55" y="-1.60" angle="90.00" type="ego_type" speed="13.89" pos="182.55" lane="e0_0" slope="0.00"/>
    </timestep>
    <timestep time="54.50">
        <vehicle id="background.0" x="299.00" y="-1.60" angle="90.00" type="human" speed="0.00" pos="299.00" lane="e0_0" slope="0.00"/>
        <vehicle id="background.1" x="143.51" y="-1.60" angle="90.00" type="human" speed="13.51" pos="143.51" lane="e0_0" slope="0.00"/>
        <vehicle id="ego" x="189.50" y="-1.60" angle="90.00" type="ego_type" speed="13.89" pos="189.50" lane="e0_0" slope="0.00"/>
    </timestep>
    <timestep time="55.00">
        <vehicle id="background.0" x="299.00" y="-1.60" angle="90.00" type="human" speed="0.00" pos="299.00" lane="e0_0" slope="0.00"/>
        <vehicle id="background.1" x="150.32" y="-1.60" angle="90.00" type="human" speed="13.61" pos="150.32" lane="e0_0" slope="0.00"/>
        <vehicle id="ego" x="196.44" y="-1.60" angle="90.00" type="ego_type" speed="13.89" pos="196.44" lane="e0_0" slope="0.00"/>
    </timestep>
    <timestep time="55.50">
        <vehicle id="background.0" x="299.00" y="-1.60" angle="90.00" type="human" speed="0.00" pos="299.00" lane="e0_0" slope="0.00"/>
        <vehicle id="background.1" x="157.14" y="-1.60" angle="90.00" type="human" speed="13.65" pos="157.14" lane="e0_0" slope="0.00"/>
        <vehicle id="ego" x="203.39" y="-1.60" angle="90.00" type="ego_type" speed="13.89" pos="203.39" lane="e0_0" slope="0.00"/>
    </timestep>
    <timestep time="56.00">
        <vehicle id="background.0" x="299.00" y="-1.60" angle="90.00" type="human" speed="0.00" pos="299.00" lane="e0_0" slope="0.00"/>
        <vehicle id="background.1" x="163.88" y="-1.60" angle="90.00" type="human" speed="13.49" pos="163.88" lane="e0_0" slope="0.00"/>
        <vehicle id="ego" x="210.33" y="-1.60" angle="90.00" type="ego_type" speed="13.89" pos="210.33" lane="e0_0" slope="0.00"/>
    </timestep>
    <timestep time="56.50">
        <vehicle id="background.0" x="299.00" y="-1.60" angle="90.00" type="human" speed="0.00" pos="299.00" lane="e0_0" slope="0.00"/>
        <vehicle id="background.1" x="170.81" y="-1.60" angle="90.00" type="human" speed="13.84" pos="170.81" lane="e0_0" slope="0.00"/>
        <vehicle id="ego" x="217.28" y="-1.60" angle="90.00" type="ego_type" speed="13.89" pos="217.28" lane="e0_0" slope="0.00"/>
    </timestep>
    <timestep time="57.00">
        <vehicle id="background.0" x="299.00" y="-1.60" angle="90.00" type="human" speed="0.00" pos="299.00" lane="e0_0" slope="0.00"/>
        <vehicle id="background.1" x="177.63" y="-1.60" angle="90.00" type="human" speed="13.65" pos="177.63" lane="e0_0" slope="0.00"/>
        <vehicle id="ego" x="224.22" y="-1.60" angle="90.00" type="ego_type" speed="13.89" pos="224.22" lane="e0_0" slope="0.00"/>
    </timestep>
    <timestep time="57.50">
        <vehicle id="background.0" x="299.00" y="-1.60" angle="90.00" type="human" speed="0.00" pos="299.00" lane="e0_0" slope="0.00"/>
        <vehicle id="background.1" x="184.42" y="-1.60" angle="90.00" type="human" speed="13.58" pos="184.42" lane="e0_0" slope="0.00"/>
        <vehicle id="ego" x="231.17" y="-1.60" angle="90.00" type="ego_type" speed="13.89" pos="231.17" lane="e0_0" slope="0.00"/>
    </timestep>
    <timestep time="58.00">
        <vehicle id="background.0" x="299.00" y="-1.60" angle="90.00" type="human" speed="0.00" pos="299.00" lane="e0_0" slope="0.00"/>
        <vehicle id="background.1" x="191.20" y="-1.60" angle="90.00" type="human" speed="13.56" pos="191.20" lane="e0_0" slope="0.00"/>
        <vehicle id="ego" x="238.11" y="-1.60" angle="90.00" type="ego_type" speed="13.89" pos="238.11" lane="e0_0" slope="0.00"/>
    </timestep>
    <timestep time="58.50">
        <vehicle id="background.0" x="299.00" y="-1.60" angle="90.00" type="human" speed="0.00" pos="299.00" lane="e0_0" slope="0.00"/>
        <vehicle id="background.1" x="197.94" y="-1.60" angle="90.00" type="human" speed="13.49" pos="197.94" lane="e0_0" slope="0.00"/>
        <vehicle id="ego" x="245.06" y="-1.60" angle="90.00" type="ego_type" speed="13.89" pos="245.06" lane="e0_0" slope="0.00"/>
    </timestep>
    <timestep time="59.00">
        <vehicle id="background.0" x="299.00" y="-1.60" angle="90.00" type="human" speed="0.00" pos="299.00" lane="e0_0" slope="0.00"/>
        <vehicle id="background.1" x="204.80" y="-1.60" angle="90.00" type="human" speed="13.72" pos="204.80" lane="e0_0" slope="0.00"/>
        <vehicle id="ego" x="252.00" y="-1.60" angle="90.00" type="ego_type" speed="13.89" pos="252.00" lane="e0_0" slope="0.00"/>
    </timestep>
    <timestep time="59.50">
        <vehicle id="background.0" x="299.00" y="-1.60" angle="90.00" type="human" speed="0.00" pos="299.00" lane="e0_0" slope="0.00"/>
        <vehicle id="background.1" x="211.54" y="-1.60" angle="90.00" type="human" speed="13.47" pos="211.54" lane="e0_0" slope="0.00"/>
        <vehicle id="ego" x="258.95" y="-1.60" angle="90.00" type="ego_type" speed="13.89" pos="258.95" lane="e0_0" slope="0.00"/>
    </timestep>
    <timestep time="60.00">
        <vehicle id="background.0" x="299.00" y="-1.60" angle="90.00" type="human" speed="0.00" pos="299.00" lane="e0_0" slope="0.00"/>
        <vehicle id="background.1" x="218.25" y="-1.60" angle="90.00" type="human" speed="13.43" pos="218.25" lane="e0_0" slope="0.00"/>
        <vehicle id="ego" x="265.89" y="-1.60" angle="90.00" type="ego_type" speed="13.89" pos="265.89" lane="e0_0" slope="0.00"/>
    </timestep>
    <timestep time="60.50">
        <vehicle id="background.0" x="299.00" y="-1.60" angle="90.00" type="human" speed="0.00" pos="299.00" lane="e0_0" slope="0.00"/>
        <vehicle id="background.1" x="225.16" y="-1.60" angle="90.00" type="human" speed="13.81" pos="225.16" lane="e0_0" slope="0.00"/>
        <vehicle id="ego" x="271.96" y="-1.60" angle="90.00" type="ego_type" speed="12.14" pos="271.96" lane="e0_0" slope="0.00"/>
    </timestep>
    <timestep time="61.00">
        <vehicle id="background.0" x="299.00" y="-1.60" angle="90.00" type="human" speed="0.00" pos="299.00" lane="e0_0" slope="0.00"/>
        <vehicle id="background.1" x="231.98" y="-1.60" angle="90.00" type="human" speed="13.64" pos="231.98" lane="e0_0" slope="0.00"/>
        <vehicle id="ego" x="277.09" y="-1.60" angle="90.00" type="ego_type" speed="10.26" pos="277.09" lane="e0_0" slope="0.00"/>
    </timestep>
    <timestep time="61.50">
        <vehicle id="background.0" x="299.00" y="-1.60" angle="90.00" type="human" speed="0.00" pos="299.00" lane="e0_0" slope="0.00"/>
        <vehicle id="background.1" x="238.77" y="-1.60" angle="90.00" type="human" speed="13.57" pos="238.77" lane="e0_0" slope="0.00"/>
        <vehicle id="ego" x="281.32" y="-1.60" angle="90.00" type="ego_type" speed="8.46" pos="281.32" lane="e0_0" slope="0.00"/>
    </timestep>
    <timestep time="62.00">
        <vehicle id="background.0" x="299.00" y="-1.60" angle="90.00" type="human" speed="0.00" pos="299.00" lane="e0_0" slope="0.00"/>
        <vehicle id="background.1" x="245.50" y="-1.60" angle="90.00" type="human" speed="13.47" pos="245.50" lane="e0_0" slope="0.00"/>
        <vehicle id="ego" x="284.71" y="-1.60" angle="90.00" type="ego_type" speed="6.77" pos="284.71" lane="e0_0" slope="0.00"/>
    </timestep>
    <timestep time="62.50">
        <vehicle id="background.0" x="299.00" y="-1.60" angle="90.00" type="human" speed="0.00" pos="299.00" lane="e0_0" slope="0.00"/>
        <vehicle id="background.1" x="252.39" y="-1.60" angle="90.00" type="human" speed="13.77" pos="252.39" lane="e0_0" slope="0.00"/>
        <vehicle id="ego" x="287.25" y="-1.60" angle="90.00" type="ego_type" speed="5.08" pos="287.25" lane="e0_0" slope="0.00"/>
    </timestep>
    <timestep time="63.00">
        <vehicle id="background.0" x="299.00" y="-1.60" angle="90.00" type="human" speed="0.00" pos="299.00" lane="e0_0" slope="0.00"/>
        <vehicle id="background.1" x="258.77" y="-1.60" angle="90.00" type="human" speed="12.77" pos="258.77" lane="e0_0" slope="0.00"/>
        <vehicle id="ego" x="289.04" y="-1.60" angle="90.00" type="ego_type" speed="3.58" pos="289.04" lane="e0_0" slope="0.00"/>
    </timestep>
    <timestep time="63.50">
        <vehicle id="background.0" x="299.00" y="-1.60" angle="90.00" type="human" speed="0.00" pos="299.00" lane="e0_0" slope="0.00"/>
        <vehicle id="background.1" x="264.31" y="-1.60" angle="90.00" type="human" speed="11.08" pos="264.31" lane="e0_0" slope="0.00"/>
        <vehicle id="ego" x="290.24" y="-1.60" angle="90.00" type="ego_type" speed="2.39" pos="290.24" lane="e0_0" slope="0.00"/>
    </timestep>
    <timestep time="64.00">
        <vehicle id="background.0" x="299.00" y="-1.60" angle="90.00" type="human" speed="0.00" pos="299.00" lane="e0_0" slope="0.00"/>
        <vehicle id="background.1" x="269.06" y="-1.60" angle="90.00" type="human" speed="9.51" pos="269.06" lane="e0_0" slope="0.00"/>
        <vehicle id="ego" x="290.87" y="-1.60" angle="90.00" type="ego_type" speed="1.26" pos="290.87" lane="e0_0" slope="0.00"/>
    </timestep>
    <timestep time="64.50">
        <vehicle id="background.0" x="299.00" y="-1.60" angle="90.00" type="human" speed="0.00" pos="299.00" lane="e0_0" slope="0.00"/>
        <vehicle id="background.1" x="273.07" y="-1.60" angle="90.00" type="human" speed="8.01" pos="273.07" lane="e0_0" slope="0.00"/>