<?xml version="1.0" encoding="UTF-8"?>

<!-- generated on 2026-05-14 17:04:22 by Eclipse SUMO sumo Version 1.24.0
<sumoConfiguration xmlns:xsi="http://www.w3.org/2001/XMLSchema-instance" xsi:noNamespaceSchemaLocation="http://sumo.dlr.de/xsd/sumoConfiguration.xsd">

    <input>
        <net-file value="scenarios/simple_arterial/simple_arterial.net.xml"/>
        <route-files value="scenarios/simple_arterial/simple_arterial.rou.xml"/>
        <additional-files value="scenarios/simple_arterial/simple_arterial.tls.xml"/>
    </input>

    <output>
        <fcd-output value="runs/fcd_expert_default/episode_00030_seed_72.fcd.xml"/>
    </output>

    <time>
        <begin value="0"/>
        <end value="900"/>
        <step-length value="0.5"/>
    </time>

    <report>
        <no-warnings value="true"/>
    </report>

    <traci_server>
        <remote-port value="24542"/>
    </traci_server>

    <random_number>
        <seed value="72"/>
    </random_number>

</sumoConfiguration>
-->

<fcd-export xmlns:xsi="http://www.w3.org/2001/XMLSchema-instance" xsi:noNamespaceSchemaLocation="http://sumo.dlr.de/xsd/fcd_file.xsd">
    <timestep time="0.00"/>
    <timestep time="0.50"/>
    <timestep time="1.00"/>
    <timestep time="1.50"/>
    <timestep time="2.00"/>
    <timestep time="2.50"/>
    <timestep time="3.00"/>
    <timestep time="3.50"/>
    <timestep time="4.00"/>
    <timestep time="4.50">
        <vehicle id="background.0" x="5.10" y="-1.60" angle="90.00" type="human" speed="13.89" pos="5.10" lane="e0_0" slope="0.00"/>
    </timestep>
    <timestep time="5.00">
        <vehicle id="background.0" x="11.88" y="-1.60" angle="90.00" type="human" speed="13.57" pos="11.88" lane="e0_0" slope="0.00"/>
    </timestep>
    <timestep time="5.50">
        <vehicle id="background.0" x="18.75" y="-1.60" angle="90.00" type="human" speed="13.74" pos="18.75" lane="e0_0" slope="0.00"/>
    </timestep>
    <timestep time="6.00">
        <vehicle id="background.0" x="25.56" y="-1.60" angle="90.00" type="human" speed="13.62" pos="25.56" lane="e0_0" slope="0.00"/>
    </timestep>
    <timestep time="6.50">
        <vehicle id="background.0" x="32.36" y="-1.60" angle="90.00" type="human" speed="13.59" pos="32.36" lane="e0_0" slope="0.00"/>
    </timestep>
    <timestep time="7.00">
        <vehicle id="background.0" x="39.17" y="-1.60" angle="90.00" type="human" speed="13.63" pos="39.17" lane="e0_0" slope="0.00"/>
    </timestep>
    <timestep time="7.50">
        <vehicle id="background.0" x="46.08" y="-1.60" angle="90.00" type="human" speed="13.80" pos="46.08" lane="e0_0" slope="0.00"/>
    </timestep>
    <timestep time="8.00">
        <vehicle id="background.0" x="52.87" y="-1.60" angle="90.00" type="human" speed="13.58" pos="52.87" lane="e0_0" slope="0.00"/>
    </timestep>
    <timestep time="8.50">
        <vehicle id="background.0" x="59.68" y="-1.60" angle="90.00" type="human" speed="13.63" pos="59.68" lane="e0_0" slope="0.00"/>
    </timestep>
    <timestep time="9.00">
        <vehicle id="background.0" x="66.50" y="-1.60" angle="90.00" type="human" speed="13.64" pos="66.50" lane="e0_0" slope="0.00"/>
    </timestep>
    <timestep time="9.50">
        <vehicle id="background.0" x="73.37" y="-1.60" angle="90.00" type="human" speed="13.74" pos="73.37" lane="e0_0" slope="0.00"/>
    </timestep>
    <timestep time="10.00">
        <vehicle id="background.0" x="80.26" y="-1.60" angle="90.00" type="human" speed="13.78" pos="80.26" lane="e0_0" slope="0.00"/>
    </timestep>
    <timestep time="10.50">
        <vehicle id="background.0" x="87.19" y="-1.60" angle="90.00" type="human" speed="13.85" pos="87.19" lane="e0_0" slope="0.00"/>
    </timestep>
    <timestep time="11.00">
        <vehicle id="background.0" x="94.07" y="-1.60" angle="90.00" type="human" speed="13.77" pos="94.07" lane="e0_0" slope="0.00"/>
    </timestep>
    <timestep time="11.50">
        <vehicle id="background.0" x="100.80" y="-1.60" angle="90.00" type="human" speed="13.46" pos="100.80" lane="e0_0" slope="0.00"/>
    </timestep>
    <timestep time="12.00">
        <vehicle id="background.0" x="107.60" y="-1.60" angle="90.00" type="human" speed="13.60" pos="107.60" lane="e0_0" slope="0.00"/>
    </timestep>
    <timestep time="12.50">
        <vehicle id="background.0" x="114.43" y="-1.60" angle="90.00" type="human" speed="13.65" pos="114.43" lane="e0_0" slope="0.00"/>
    </timestep>
    <timestep time="13.00">
        <vehicle id="background.0" x="121.18" y="-1.60" angle="90.00" type="human" speed="13.50" pos="121.18" lane="e0_0" slope="0.00"/>
    </timestep>
    <timestep time="13.50">
        <vehicle id="background.0" x="127.92" y="-1.60" angle="90.00" type="human" speed="13.47" pos="127.92" lane="e0_0" slope="0.00"/>
        <vehicle id="background.1" x="5.10" y="-1.60" angle="90.00" type="human" speed="13.89" pos="5.10" lane="e0_0" slope="0.00"/>
    </timestep>
    <timestep time="14.00">
        <vehicle id="background.0" x="134.78" y="-1.60" angle="90.00" type="human" speed="13.73" pos="134.78" lane="e0_0" slope="0.00"/>
        <vehicle id="background.1" x="11.81" y="-1.60" angle="90.00" type="human" speed="13.41" pos="11.81" lane="e0_0" slope="0.00"/>
    </timestep>
    <timestep time="14.50">
        <vehicle id="background.0" x="141.63" y="-1.60" angle="90.00" type="human" speed="13.69" pos="141.63" lane="e0_0" slope="0.00"/>
        <vehicle id="background.1" x="18.60" y="-1.60" angle="90.00" type="human" speed="13.60" pos="18.60" lane="e0_0" slope="0.00"/>
    </timestep>
    <timestep time="15.00">
        <vehicle id="background.0" x="148.42" y="-1.60" angle="90.00" type="human" speed="13.59" pos="148.42" lane="e0_0" slope="0.00"/>
        <vehicle id="background.1" x="25.43" y="-1.60" angle="90.00" type="human" speed="13.64" pos="25.43" lane="e0_0" slope="0.00"/>
    </timestep>
    <timestep time="15.50">
        <vehicle id="background.0" x="155.31" y="-1.60" angle="90.00" type="human" speed="13.77" pos="155.31" lane="e0_0" slope="0.00"/>
        <vehicle id="background.1" x="32.15" y="-1.60" angle="90.00" type="human" speed="13.45" pos="32.15" lane="e0_0" slope="0.00"/>
    </timestep>
    <timestep time="16.00">
        <vehicle id="background.0" x="162.03" y="-1.60" angle="90.00" type="human" speed="13.44" pos="162.03" lane="e0_0" slope="0.00"/>
        <vehicle id="background.1" x="39.02" y="-1.60" angle="90.00" type="human" speed="13.73" pos="39.02" lane="e0_0" slope="0.00"/>
    </timestep>
    <timestep time="16.50">
        <vehicle id="background.0" x="168.93" y="-1.60" angle="90.00" type="human" speed="13.81" pos="168.93" lane="e0_0" slope="0.00"/>
        <vehicle id="background.1" x="45.77" y="-1.60" angle="90.00" type="human" speed="13.51" pos="45.77" lane="e0_0" slope="0.00"/>
    </timestep>
    <timestep time="17.00">
        <vehicle id="background.0" x="175.73" y="-1.60" angle="90.00" type="human" speed="13.60" pos="175.73" lane="e0_0" slope="0.00"/>
        <vehicle id="background.1" x="52.69" y="-1.60" angle="90.00" type="human" speed="13.84" pos="52.69" lane="e0_0" slope="0.00"/>
    </timestep>
    <timestep time="17.50">
        <vehicle id="background.0" x="182.61" y="-1.60" angle="90.00" type="human" speed="13.76" pos="182.61" lane="e0_0" slope="0.00"/>
        <vehicle id="background.1" x="59.52" y="-1.60" angle="90.00" type="human" speed="13.67" pos="59.52" lane="e0_0" slope="0.00"/>
    </timestep>
    <timestep time="18.00">
        <vehicle id="background.0" x="189.33" y="-1.60" angle="90.00" type="human" speed="13.45" pos="189.33" lane="e0_0" slope="0.00"/>
        <vehicle id="background.1" x="66.41" y="-1.60" angle="90.00" type="human" speed="13.78" pos="66.41" lane="e0_0" slope="0.00"/>
    </timestep>
    <timestep time="18.50">
        <vehicle id="background.0" x="196.05" y="-1.60" angle="90.00" type="human" speed="13.43" pos="196.05" lane="e0_0" slope="0.00"/>
        <vehicle id="background.1" x="73.31" y="-1.60" angle="90.00" type="human" speed="13.80" pos="73.31" lane="e0_0" slope="0.00"/>
    </timestep>
    <timestep time="19.00">
        <vehicle id="background.0" x="202.97" y="-1.60" angle="90.00" type="human" speed="13.84" pos="202.97" lane="e0_0" slope="0.00"/>
        <vehicle id="background.1" x="80.06" y="-1.60" angle="90.00" type="human" speed="13.49" pos="80.06" lane="e0_0" slope="0.00"/>
    </timestep>
    <timestep time="19.50">
        <vehicle id="background.0" x="209.67" y="-1.60" angle="90.00" type="human" speed="13.40" pos="209.67" lane="e0_0" slope="0.00"/>
        <vehicle id="background.1" x="86.98" y="-1.60" angle="90.00" type="human" speed="13.83" pos="86.98" lane="e0_0" slope="0.00"/>
    </timestep>
    <timestep time="20.00">
        <vehicle id="background.0" x="216.60" y="-1.60" angle="90.00" type="human" speed="13.87" pos="216.60" lane="e0_0" slope="0.00"/>
        <vehicle id="background.1" x="93.86" y="-1.60" angle="90.00" type="human" speed="13.76" pos="93.86" lane="e0_0" slope="0.00"/>
    </timestep>
    <timestep time="20.50">
        <vehicle id="background.0" x="223.54" y="-1.60" angle="90.00" type="human" speed="13.87" pos="223.54" lane="e0_0" slope="0.00"/>
        <vehicle id="background.1" x="100.71" y="-1.60" angle="90.00" type="human" speed="13.70" pos="100.71" lane="e0_0" slope="0.00"/>
    </timestep>
    <timestep time="21.00">
        <vehicle id="background.0" x="230.35" y="-1.60" angle="90.00" type="human" speed="13.62" pos="230.35" lane="e0_0" slope="0.00"/>
        <vehicle id="background.1" x="107.51" y="-1.60" angle="90.00" type="human" speed="13.61" pos="107.51" lane="e0_0" slope="0.00"/>
    </timestep>
    <timestep time="21.50">
        <vehicle id="background.0" x="237.29" y="-1.60" angle="90.00" type="human" speed="13.88" pos="237.29" lane="e0_0" slope="0.00"/>
        <vehicle id="background.1" x="114.28" y="-1.60" angle="90.00" type="human" speed="13.54" pos="114.28" lane="e0_0" slope="0.00"/>
    </timestep>
    <timestep time="22.00">
        <vehicle id="background.0" x="244.15" y="-1.60" angle="90.00" type="human" speed="13.72" pos="244.15" lane="e0_0" slope="0.00"/>
        <vehicle id="background.1" x="121.06" y="-1.60" angle="90.00" type="human" speed="13.56" pos="121.06" lane="e0_0" slope="0.00"/>
    </timestep>
    <timestep time="22.50">
        <vehicle id="background.0" x="251.05" y="-1.60" angle="90.00" type="human" speed="13.79" pos="251.05" lane="e0_0" slope="0.00"/>
        <vehicle id="background.1" x="127.77" y="-1.60" angle="90.00" type="human" speed="13.42" pos="127.77" lane="e0_0" slope="0.00"/>
    </timestep>
    <timestep time="23.00">
        <vehicle id="background.0" x="257.93" y="-1.60" angle="90.00" type="human" speed="13.76" pos="257.93" lane="e0_0" slope="0.00"/>
        <vehicle id="background.1" x="134.63" y="-1.60" angle="90.00" type="human" speed="13.71" pos="134.63" lane="e0_0" slope="0.00"/>
    </timestep>
    <timestep time="23.50">
        <vehicle id="background.0" x="264.63" y="-1.60" angle="90.00" type="human" speed="13.40" pos="264.63" lane="e0_0" slope="0.00"/>
        <vehicle id="background.1" x="141.55" y="-1.60" angle="90.00" type="human" speed="13.85" pos="141.55" lane="e0_0" slope="0.00"/>
    </timestep>
    <timestep time="24.00">
        <vehicle id="background.0" x="271.34" y="-1.60" angle="90.00" type="human" speed="13.42" pos="271.34" lane="e0_0" slope="0.00"/>
        <vehicle id="background.1" x="148.37" y="-1.60" angle="90.00" type="human" speed="13.63" pos="148.37" lane="e0_0" slope="0.00"/>
    </timestep>
    <timestep time="24.50">
        <vehicle id="background.0" x="278.08" y="-1.60" angle="90.00" type="human" speed="13.48" pos="278.08" lane="e0_0" slope="0.00"/>
        <vehicle id="background.1" x="155.22" y="-1.60" angle="90.00" type="human" speed="13.71" pos="155.22" lane="e0_0" slope="0.00"/>
    </timestep>
    <timestep time="25.00">
        <vehicle id="background.0" x="284.86" y="-1.60" angle="90.00" type="human" speed="13.56" pos="284.86" lane="e0_0" slope="0.00"/>
        <vehicle id="background.1" x="162.00" y="-1.60" angle="90.00" type="human" speed="13.55" pos="162.00" lane="e0_0" slope="0.00"/>
    </timestep>
    <timestep time="25.50">
        <vehicle id="background.0" x="291.79" y="-1.60" angle="90.00" type="human" speed="13.86" pos="291.79" lane="e0_0" slope="0.00"/>
        <vehicle id="background.1" x="168.88" y="-1.60" angle="90.00" type="human" speed="13.76" pos="168.88" lane="e0_0" slope="0.00"/>
    </timestep>
    <timestep time="26.00">
        <vehicle id="background.0" x="298.56" y="-1.60" angle="90.00" type="human" speed="13.55" pos="298.56" lane="e0_0" slope="0.00"/>
        <vehicle id="background.1" x="175.81" y="-1.60" angle="90.00" type="human" speed="13.86" pos="175.81" lane="e0_0" slope="0.00"/>
    </timestep>
    <timestep time="26.50">
        <vehicle id="background.0" x="305.25" y="-1.60" angle="90.00" type="human" speed="13.57" pos="5.25" lane="e1_0" slope="0.00"/>
        <vehicle id="background.1" x="182.58" y="-1.60" angle="90.00" type="human" speed="13.55" pos="182.58" lane="e0_0" slope="0.00"/>
    </timestep>
    <timestep time="27.00">
        <vehicle id="background.0" x="312.14" y="-1.60" angle="90.00" type="human" speed="13.79" pos="12.14" lane="e1_0" slope="0.00"/>
        <vehicle id="background.1" x="189.38" y="-1.60" angle="90.00" type="human" speed="13.59" pos="189.38" lane="e0_0" slope="0.00"/>
    </timestep>
    <timestep time="27.50">
        <vehicle id="background.0" x="318.98" y="-1.60" angle="90.00" type="human" speed="13.68" pos="18.98" lane="e1_0" slope="0.00"/>
        <vehicle id="background.1" x="196.17" y="-1.60" angle="90.00" type="human" speed="13.58" pos="196.17" lane="e0_0" slope="0.00"/>
    </timestep>
    <timestep time="28.00">
        <vehicle id="background.0" x="325.73" y="-1.60" angle="90.00" type="human" speed="13.50" pos="25.73" lane="e1_0" slope="0.00"/>
        <vehicle id="background.1" x="203.08" y="-1.60" angle="90.00" type="human" speed="13.83" pos="203.08" lane="e0_0" slope="0.00"/>
    </timestep>
    <timestep time="28.50">
        <vehicle id="background.0" x="332.44" y="-1.60" angle="90.00" type="human" speed="13.42" pos="32.44" lane="e1_0" slope="0.00"/>
        <vehicle id="background.1" x="209.81" y="-1.60" angle="90.00" type="human" speed="13.46" pos="209.81" lane="e0_0" slope="0.00"/>
    </timestep>
    <timestep time="29.00">
        <vehicle id="background.0" x="339.17" y="-1.60" angle="90.00" type="human" speed="13.46" pos="39.17" lane="e1_0" slope="0.00"/>
        <vehicle id="background.1" x="216.70" y="-1.60" angle="90.00" type="human" speed="13.78" pos="216.70" lane="e0_0" slope="0.00"/>
    </timestep>
    <timestep time="29.50">
        <vehicle id="background.0" x="346.09" y="-1.60" angle="90.00" type="human" speed="13.84" pos="46.09" lane="e1_0" slope="0.00"/>
        <vehicle id="background.1" x="223.58" y="-1.60" angle="90.00" type="human" speed="13.76" pos="223.58" lane="e0_0" slope="0.00"/>
    </timestep>
    <timestep time="30.00">
        <vehicle id="background.1" x="230.40" y="-1.60" angle="90.00" type="human" speed="13.64" pos="230.40" lane="e0_0" slope="0.00"/>
    </timestep>
    <timestep time="30.50">
        <vehicle id="background.1" x="237.10" y="-1.60" angle="90.00" type="human" speed="13.40" pos="237.10" lane="e0_0" slope="0.00"/>
    </timestep>
    <timestep time="31.00">
        <vehicle id="background.1" x="243.93" y="-1.60" angle="90.00" type="human" speed="13.65" pos="243.93" lane="e0_0" slope="0.00"/>
    </timestep>
    <timestep time="31.50">
        <vehicle id="background.1" x="250.71" y="-1.60" angle="90.00" type="human" speed="13.56" pos="250.71" lane="e0_0" slope="0.00"/>
    </timestep>
    <timestep time="32.00">
        <vehicle id="background.1" x="257.64" y="-1.60" angle="90.00" type="human" speed="13.85" pos="257.64" lane="e0_0" slope="0.00"/>
    </timestep>
    <timestep time="32.50">
        <vehicle id="background.1" x="264.45" y="-1.60" angle="90.00" type="human" speed="13.62" pos="264.45" lane="e0_0" slope="0.00"/>
    </timestep>
    <timestep time="33.00">
        <vehicle id="background.1" x="271.30" y="-1.60" angle="90.00" type="human" speed="13.71" pos="271.30" lane="e0_0" slope="0.00"/>
    </timestep>
    <timestep time="33.50">
        <vehicle id="background.1" x="278.21" y="-1.60" angle="90.00" type="human" speed="13.81" pos="278.21" lane="e0_0" slope="0.00"/>
    </timestep>
    <timestep time="34.00">
        <vehicle id="background.1" x="284.97" y="-1.60" angle="90.00" type="human" speed="13.52" pos="284.97" lane="e0_0" slope="0.00"/>
    </timestep>
    <timestep time="34.50">
        <vehicle id="background.1" x="291.90" y="-1.60" angle="90.00" type="human" speed="13.86" pos="291.90" lane="e0_0" slope="0.00"/>
    </timestep>
    <timestep time="35.00">
        <vehicle id="background.1" x="298.66" y="-1.60" angle="90.00" type="human" speed="13.52" pos="298.66" lane="e0_0" slope="0.00"/>
    </timestep>
    <timestep time="35.50">
        <vehicle id="background.1" x="305.47" y="-1.60" angle="90.00" type="human" speed="13.82" pos="5.47" lane="e1_0" slope="0.00"/>
    </timestep>
    <timestep time="36.00">
        <vehicle id="background.1" x="312.28" y="-1.60" angle="90.00" type="human" speed="13.61" pos="12.28" lane="e1_0" slope="0.00"/>
    </timestep>
    <timestep time="36.50">
        <vehicle id="background.1" x="319.16" y="-1.60" angle="90.00" type="human" speed="13.77" pos="19.16" lane="e1_0" slope="0.00"/>
    </timestep>
    <timestep time="37.00">
        <vehicle id="background.1" x="325.94" y="-1.60" angle="90.00" type="human" speed="13.55" pos="25.94" lane="e1_0" slope="0.00"/>
    </timestep>
    <timestep time="37.50">
        <vehicle id="background.1" x="332.68" y="-1.60" angle="90.00" type="human" speed="13.48" pos="32.68" lane="e1_0" slope="0.00"/>
    </timestep>
    <timestep time="38.00">
        <vehicle id="background.1" x="339.41" y="-1.60" angle="90.00" type="human" speed="13.47" pos="39.41" lane="e1_0" slope="0.00"/>
    </timestep>
    <timestep time="38.50">
        <vehicle id="background.1" x="346.18" y="-1.60" angle="90.00" type="human" speed="13.53" pos="46.18" lane="e1_0" slope="0.00"/>
    </timestep>
    <timestep time="39.00"/>
    <timestep time="39.50"/>
    <timestep time="40.00"/>
    <timestep time="40.50"/>
    <timestep time="41.00"/>
    <timestep time="41.50"/>
    <timestep time="42.00"/>
    <timestep time="42.50"/>
    <timestep time="43.00"/>
    <timestep time="43.50"/>
    <timestep time="44.00"/>
    <timestep time="44.50">
        <vehicle id="background.2" x="5.10" y="-1.60" angle="90.00" type="human" speed="12.12" pos="5.10" lane="e0_0" slope="0.00"/>
    </timestep>
    <timestep time="45.00">
        <vehicle id="background.2" x="11.13" y="-1.60" angle="90.00" type="human" speed="12.06" pos="11.13" lane="e0_0" slope="0.00"/>
    </timestep>
    <timestep time="45.50">
        <vehicle id="background.2" x="17.04" y="-1.60" angle="90.00" type="human" speed="11.81" pos="17.04" lane="e0_0" slope="0.00"/>
    </timestep>
    <timestep time="46.00">
        <vehicle id="background.2" x="23.09" y="-1.60" angle="90.00" type="human" speed="12.10" pos="23.09" lane="e0_0" slope="0.00"/>
    </timestep>
    <timestep time="46.50">
        <vehicle id="background.2" x="29.09" y="-1.60" angle="90.00" type="human" speed="12.01" pos="29.09" lane="e0_0" slope="0.00"/>
    </timestep>
    <timestep time="47.00">
        <vehicle id="background.2" x="35.07" y="-1.60" angle="90.00" type="human" speed="11.96" pos="35.07" lane="e0_0" slope="0.00"/>
    </timestep>
    <timestep time="47.50">
        <vehicle id="background.2" x="40.96" y="-1.60" angle="90.00" type="human" speed="11.79" pos="40.96" lane="e0_0" slope="0.00"/>
    </timestep>
    <timestep time="48.00">
        <vehicle id="background.2" x="46.81" y="-1.60" angle="90.00" type="human" speed="11.70" pos="46.81" lane="e0_0" slope="0.00"/>
    </timestep>
    <timestep time="48.50">
        <vehicle id="background.2" x="52.64" y="-1.60" angle="90.00" type="human" speed="11.65" pos="52.64" lane="e0_0" slope="0.00"/>
    </timestep>
    <timestep time="49.00">
        <vehicle id="background.2" x="58.54" y="-1.60" angle="90.00" type="human" speed="11.82" pos="58.54" lane="e0_0" slope="0.00"/>
    </timestep>
    <timestep time="49.50">
        <vehicle id="background.2" x="64.47" y="-1.60" angle="90.00" type="human" speed="11.86" pos="64.47" lane="e0_0" slope="0.00"/>
    </timestep>
    <timestep time="50.00">
        <vehicle id="background.2" x="70.51" y="-1.60" angle="90.00" type="human" speed="12.08" pos="70.51" lane="e0_0" slope="0.00"/>
    </timestep>
    <timestep time="50.50">
        <vehicle id="background.2" x="76.55" y="-1.60" angle="90.00" type="human" speed="12.06" pos="76.55" lane="e0_0" slope="0.00"/>
    </timestep>
    <timestep time="51.00">
        <vehicle id="background.2" x="82.54" y="-1.60" angle="90.00" type="human" speed="11.99" pos="82.54" lane="e0_0" slope="0.00"/>
    </timestep>
    <timestep time="51.50">
        <vehicle id="background.2" x="88.60" y="-1.60" angle="90.00" type="human" speed="12.12" pos="88.60" lane="e0_0" slope="0.00"/>
    </timestep>
    <timestep time="52.00">
        <vehicle id="background.2" x="94.51" y="-1.60" angle="90.00" type="human" speed="11.83" pos="94.51" lane="e0_0" slope="0.00"/>
    </timestep>
    <timestep time="52.50">
        <vehicle id="background.2" x="100.35" y="-1.60" angle="90.00" type="human" speed="11.67" pos="100.35" lane="e0_0" slope="0.00"/>
    </timestep>
    <timestep time="53.00">
        <vehicle id="background.2" x="106.30" y="-1.60" angle="90.00" type="human" speed="11.91" pos="106.30" lane="e0_0" slope="0.00"/>
    </timestep>
    <timestep time="53.50">
        <vehicle id="background.2" x="112.22" y="-1.60" angle="90.00" type="human" speed="11.83" pos="112.22" lane="e0_0" slope="0.00"/>
    </timestep>
    <timestep time="54.00">
        <vehicle id="background.2" x="118.12" y="-1.60" angle="90.00" type="human" speed="11.80" pos="118.12" lane="e0_0" slope="0.00"/>
    </timestep>
    <timestep time="54.50">
        <vehicle id="background.2" x="124.11" y="-1.60" angle="90.00" type="human" speed="11.98" pos="124.11" lane="e0_0" slope="0.00"/>
    </timestep>
    <timestep time="55.00">
        <vehicle id="background.2" x="130.16" y="-1.60" angle="90.00" type="human" speed="12.09" pos="130.16" lane="e0_0" slope="0.00"/>
    </timestep>
    <timestep time="55.50">
        <vehicle id="background.2" x="136.06" y="-1.60" angle="90.00" type="human" speed="11.81" pos="136.06" lane="e0_0" slope="0.00"/>
    </timestep>
    <timestep time="56.00">
        <vehicle id="background.2" x="141.98" y="-1.60" angle="90.00" type="human" speed="11.83" pos="141.98" lane="e0_0" slope="0.00"/>
    </timestep>
    <timestep time="56.50">
        <vehicle id="background.2" x="147.83" y="-1.60" angle="90.00" type="human" speed="11.70" pos="147.83" lane="e0_0" slope="0.00"/>
    </timestep>
    <timestep time="57.00">
        <vehicle id="background.2" x="153.65" y="-1.60" angle="90.00" type="human" speed="11.64" pos="153.65" lane="e0_0" slope="0.00"/>
    </timestep>
    <timestep time="57.50">
        <vehicle id="background.2" x="159.54" y="-1.60" angle="90.00" type="human" speed="11.79" pos="159.54" lane="e0_0" slope="0.00"/>
    </timestep>
    <timestep time="58.00">
        <vehicle id="background.2" x="165.60" y="-1.60" angle="90.00" type="human" speed="12.12" pos="165.60" lane="e0_0" slope="0.00"/>
    </timestep>
    <timestep time="58.50">
        <vehicle id="background.2" x="171.49" y="-1.60" angle="90.00" type="human" speed="11.78" pos="171.49" lane="e0_0" slope="0.00"/>
    </timestep>
    <timestep time="59.00">
        <vehicle id="background.2" x="177.38" y="-1.60" angle="90.00" type="human" speed="11.78" pos="177.38" lane="e0_0" slope="0.00"/>
    </timestep>
    <timestep time="59.50">
        <vehicle id="background.2" x="183.24" y="-1.60" angle="90.00" type="human" speed="11.73" pos="183.24" lane="e0_0" slope="0.00"/>
    </timestep>
    <timestep time="60.00">
        <vehicle id="background.2" x="189.08" y="-1.60" angle="90.00" type="human" speed="11.67" pos="189.08" lane="e0_0" slope="0.00"/>
    </timestep>
    <timestep time="60.50">
        <vehicle id="background.2" x="194.94" y="-1.60" angle="90.00" type="human" speed="11.72" pos="194.94" lane="e0_0" slope="0.00"/>
    </timestep>
    <timestep time="61.00">
        <vehicle id="background.2" x="200.80" y="-1.60" angle="90.00" type="human" speed="11.72" pos="200.80" lane="e0_0" slope="0.00"/>
    </timestep>
    <timestep time="61.50">
        <vehicle id="background.2" x="206.85" y="-1.60" angle="90.00" type="human" speed="12.10" pos="206.85" lane="e0_0" slope="0.00"/>
    </timestep>
    <timestep time="62.00">
        <vehicle id="background.2" x="212.74" y="-1.60" angle="90.00" type="human" speed="11.79" pos="212.74" lane="e0_0" slope="0.00"/>
    </timestep>
    <timestep time="62.50">
        <vehicle id="background.2" x="218.79" y="-1.60" angle="90.00" type="human" speed="12.08" pos="218.79" lane="e0_0" slope="0.00"/>
    </timestep>
    <timestep time="63.00">
        <vehicle id="background.2" x="224.64" y="-1.60" angle="90.00" type="human" speed="11.72" pos="224.64" lane="e0_0" slope="0.00"/>
    </timestep>
    <timestep time="63.50">
        <vehicle id="background.2" x="230.48" y="-1.60" angle="90.00" type="human" speed="11.68" pos="230.48" lane="e0_0" slope="0.00"/>
    </timestep>
    <timestep time="64.00">
        <vehicle id="background.2" x="236.50" y="-1.60" angle="90.00" type="human" speed="12.04" pos="236.50" lane="e0_0" slope="0.00"/>
    </timestep>
    <timestep time="64.50">
        <vehicle id="background.2" x="242.35" y="-1.60" angle="90.00" type="human" speed="11.69" pos="242.35" lane="e0_0" slope="0.00"/>
    </timestep>
    <timestep time="65.00">
        <vehicle id="background.2" x="248.35" y="-1.60" angle="90.00" type="human" speed="11.99" pos="248.35" lane="e0_0" slope="0.00"/>
    </timestep>
    <timestep time="65.50">
        <vehicle id="background.2" x="254.24" y="-1.60" angle="90.00" type="human" speed="11.80" pos="254.24" lane="e0_0" slope="0.00"/>
    </timestep>
    <timestep time="66.00">
        <vehicle id="background.2" x="260.18" y="-1.60" angle="90.00" type="human" speed="11.87" pos="260.18" lane="e0_0" slope="0.00"/>
    </timestep>
    <timestep time="66.50">
        <vehicle id="background.2" x="266.20" y="-1.60" angle="90.00" type="human" speed="12.04" pos="266.20" lane="e0_0" slope="0.00"/>
    </timestep>
    <timestep time="67.00">
        <vehicle id="background.2" x="272.03" y="-1.60" angle="90.00" type="human" speed="11.66" pos="272.03" lane="e0_0" slope="0.00"/>
    </timestep>
    <timestep time="67.50">
        <vehicle id="background.2" x="277.86" y="-1.60" angle="90.00" type="human" speed="11.67" pos="277.86" lane="e0_0" slope="0.00"/>
        <vehicle id="background.3" x="5.10" y="-1.60" angle="90.00" type="human" speed="13.81" pos="5.10" lane="e0_0" slope="0.00"/>
    </timestep>
    <timestep time="68.00">
        <vehicle id="background.2" x="283.80" y="-1.60" angle="90.00" type="human" speed="11.87" pos="283.80" lane="e0_0" slope="0.00"/>
        <vehicle id="background.3" x="11.92" y="-1.60" angle="90.00" type="human" speed="13.64" pos="11.92" lane="e0_0" slope="0.00"/>
    </timestep>
    <timestep time="68.50">
        <vehicle id="background.2" x="289.04" y="-1.60" angle="90.00" type="human" speed="10.48" pos="289.04" lane="e0_0" slope="0.00"/>
        <vehicle id="background.3" x="18.75" y="-1.60" angle="90.00" type="human" speed="13.65" pos="18.75" lane="e0_0" slope="0.00"/>
    </timestep>
    <timestep time="69.00">
        <vehicle id="background.2" x="293.16" y="-1.60" angle="90.00" type="human" speed="8.23" pos="293.16" lane="e0_0" slope="0.00"/>
        <vehicle id="background.3" x="25.42" y="-1.60" angle="90.00" type="human" speed="13.35" pos="25.42" lane="e0_0" slope="0.00"/>
    </timestep>
    <timestep time="69.50">
        <vehicle id="background.2" x="296.15" y="-1.60" angle="90.00" type="human" speed="5.99" pos="296.15" lane="e0_0" slope="0.00"/>
        <vehicle id="background.3" x="32.21" y="-1.60" angle="90.00" type="human" speed="13.57" pos="32.21" lane="e0_0" slope="0.00"/>
    </timestep>
    <timestep time="70.00">
        <vehicle id="background.2" x="298.02" y="-1.60" angle="90.00" type="human" speed="3.74" pos="298.02" lane="e0_0" slope="0.00"/>
        <vehicle id="background.3" x="38.88" y="-1.60" angle="90.00" type="human" speed="13.35" pos="38.88" lane="e0_0" slope="0.00"/>
    </timestep>
    <timestep time="70.50">
        <vehicle id="background.2" x="298.82" y="-1.60" angle="90.00" type="human" speed="1.60" pos="298.82" lane="e0_0" slope="0.00"/>
        <vehicle id="background.3" x="45.73" y="-1.60" angle="90.00" type="human" speed="13.70" pos="45.73" lane="e0_0" slope="0.00"/>
    </timestep>
    <timestep time="71.00">
        <vehicle id="background.2" x="298.99" y="-1.60" angle="90.00" type="human" speed="0.35" pos="298.99" lane="e0_0" slope="0.00"/>
        <vehicle id="background.3" x="52.60" y="-1.60" angle="90.00" type="human" speed="13.74" pos="52.60" lane="e0_0" slope="0.00"/>
    </timestep>
    <timestep time="71.50">
        <vehicle id="background.2" x="299.00" y="-1.60" angle="90.00" type="human" speed="0.01" pos="299.00" lane="e0_0" slope="0.00"/>
        <vehicle id="background.3" x="59.50" y="-1.60" angle="90.00" type="human" speed="13.80" pos="59.50" lane="e0_0" slope="0.00"/>
    </timestep>
    <timestep time="72.00">
        <vehicle id="background.2" x="299.00" y="-1.60" angle="90.00" type="human" speed="0.00" pos="299.00" lane="e0_0" slope="0.00"/>