<?xml version="1.0" encoding="UTF-8"?>

<!-- generated on 2026-05-14 17:04:39 by Eclipse SUMO sumo Version 1.24.0
<sumoConfiguration xmlns:xsi="http://www.w3.org/2001/XMLSchema-instance" xsi:noNamespaceSchemaLocation="http://sumo.dlr.de/xsd/sumoConfiguration.xsd">

    <input>
        <net-file value="scenarios/simple_arterial/simple_arterial.net.xml"/>
        <route-files value="scenarios/simple_arterial/simple_arterial.rou.xml"/>
        <additional-files value="scenarios/simple_arterial/simple_arterial.tls.xml"/>
    </input>

    <output>
        <fcd-output value="runs/fcd_expert_default/episode_00045_seed_87.fcd.xml"/>
    </output>

    <time>
        <begin value="0"/>
        <end value="900"/>
        <step-length value="0.5"/>
    </time>

    <report>
        <no-warnings value="true"/>
    </report>

    <traci_server>
        <remote-port value="24542"/>
    </traci_server>

    <random_number>
        <seed value="87"/>
    </random_number>

</sumoConfiguration>
-->

<fcd-export xmlns:xsi="http://www.w3.org/2001/XMLSchema-instance" xsi:noNamespaceSchemaLocation="http://sumo.dlr.de/xsd/fcd_file.xsd">
    <timestep time="0.00"/>
    <timestep time="0.50"/>
    <timestep time="1.00"/>
    <timestep time="1.50"/>
    <timestep time="2.00"/>
    <timestep time="2.50"/>
    <timestep time="3.00"/>
    <timestep time="3.50"/>
    <timestep time="4.00"/>
    <timestep time="4.50"/>
    <timestep time="5.00"/>
    <timestep time="5.50"/>
    <timestep time="6.00"/>
    <timestep time="6.50"/>
    <timestep time="7.00"/>
    <timestep time="7.50"/>
    <timestep time="8.00"/>
    <timestep time="8.50"/>
    <timestep time="9.00"/>
    <timestep time="9.50"/>
    <timestep time="10.00"/>
    <timestep time="10.50"/>
    <timestep time="11.00"/>
    <timestep time="11.50"/>
    <timestep time="12.00"/>
    <timestep time="12.50"/>
    <timestep time="13.00"/>
    <timestep time="13.50"/>
    <timestep time="14.00"/>
    <timestep time="14.50"/>
    <timestep time="15.00"/>
    <timestep time="15.50"/>
    <timestep time="16.00"/>
    <timestep time="16.50"/>
    <timestep time="17.00"/>
    <timestep time="17.50"/>
    <timestep time="18.00"/>
    <timestep time="18.50"/>
    <timestep time="19.00"/>
    <timestep time="19.50"/>
    <timestep time="20.00"/>
    <timestep time="20.50"/>
    <timestep time="21.00"/>
    <timestep time="21.50"/>
    <timestep time="22.00"/>
    <timestep time="22.50"/>
    <timestep time="23.00"/>
    <timestep time="23.50"/>
    <timestep time="24.00"/>
    <timestep time="24.50"/>
    <timestep time="25.00">
        <vehicle id="background.0" x="5.10" y="-1.60" angle="90.00" type="human" speed="13.89" pos="5.10" lane="e0_0" slope="0.00"/>
    </timestep>
    <timestep time="25.50">
        <vehicle id="background.0" x="11.88" y="-1.60" angle="90.00" type="human" speed="13.57" pos="11.88" lane="e0_0" slope="0.00"/>
    </timestep>
    <timestep time="26.00">
        <vehicle id="background.0" x="18.68" y="-1.60" angle="90.00" type="human" speed="13.59" pos="18.68" lane="e0_0" slope="0.00"/>
    </timestep>
    <timestep time="26.50">
        <vehicle id="background.0" x="25.49" y="-1.60" angle="90.00" type="human" speed="13.64" pos="25.49" lane="e0_0" slope="0.00"/>
    </timestep>
    <timestep time="27.00">
        <vehicle id="background.0" x="32.21" y="-1.60" angle="90.00" type="human" speed="13.44" pos="32.21" lane="e0_0" slope="0.00"/>
    </timestep>
    <timestep time="27.50">
        <vehicle id="background.0" x="39.03" y="-1.60" angle="90.00" type="human" speed="13.63" pos="39.03" lane="e0_0" slope="0.00"/>
    </timestep>
    <timestep time="28.00">
        <vehicle id="background.0" x="45.81" y="-1.60" angle="90.00" type="human" speed="13.56" pos="45.81" lane="e0_0" slope="0.00"/>
    </timestep>
    <timestep time="28.50">
        <vehicle id="background.0" x="52.53" y="-1.60" angle="90.00" type="human" speed="13.44" pos="52.53" lane="e0_0" slope="0.00"/>
    </timestep>
    <timestep time="29.00">
        <vehicle id="background.0" x="59.29" y="-1.60" angle="90.00" type="human" speed="13.53" pos="59.29" lane="e0_0" slope="0.00"/>
    </timestep>
    <timestep time="29.50">
        <vehicle id="background.0" x="66.06" y="-1.60" angle="90.00" type="human" speed="13.54" pos="66.06" lane="e0_0" slope="0.00"/>
    </timestep>
    <timestep time="30.00">
        <vehicle id="background.0" x="72.95" y="-1.60" angle="90.00" type="human" speed="13.77" pos="72.95" lane="e0_0" slope="0.00"/>
    </timestep>
    <timestep time="30.50">
        <vehicle id="background.0" x="79.72" y="-1.60" angle="90.00" type="human" speed="13.53" pos="79.72" lane="e0_0" slope="0.00"/>
        <vehicle id="background.1" x="5.10" y="-1.60" angle="90.00" type="human" speed="13.89" pos="5.10" lane="e0_0" slope="0.00"/>
    </timestep>
    <timestep time="31.00">
        <vehicle id="background.0" x="86.63" y="-1.60" angle="90.00" type="human" speed="13.82" pos="86.63" lane="e0_0" slope="0.00"/>
        <vehicle id="background.1" x="11.87" y="-1.60" angle="90.00" type="human" speed="13.53" pos="11.87" lane="e0_0" slope="0.00"/>
    </timestep>
    <timestep time="31.50">
        <vehicle id="background.0" x="93.36" y="-1.60" angle="90.00" type="human" speed="13.46" pos="93.36" lane="e0_0" slope="0.00"/>
        <vehicle id="background.1" x="18.75" y="-1.60" angle="90.00" type="human" speed="13.78" pos="18.75" lane="e0_0" slope="0.00"/>
        <vehicle id="background.2" x="5.10" y="-1.60" angle="90.00" type="human" speed="11.64" pos="5.10" lane="e0_0" slope="0.00"/>
    </timestep>
    <timestep time="32.00">
        <vehicle id="background.0" x="100.06" y="-1.60" angle="90.00" type="human" speed="13.41" pos="100.06" lane="e0_0" slope="0.00"/>
        <vehicle id="background.1" x="25.66" y="-1.60" angle="90.00" type="human" speed="13.80" pos="25.66" lane="e0_0" slope="0.00"/>
        <vehicle id="background.2" x="10.88" y="-1.60" angle="90.00" type="human" speed="11.56" pos="10.88" lane="e0_0" slope="0.00"/>
    </timestep>
    <timestep time="32.50">
        <vehicle id="background.0" x="106.89" y="-1.60" angle="90.00" type="human" speed="13.66" pos="106.89" lane="e0_0" slope="0.00"/>
        <vehicle id="background.1" x="32.45" y="-1.60" angle="90.00" type="human" speed="13.58" pos="32.45" lane="e0_0" slope="0.00"/>
        <vehicle id="background.2" x="16.64" y="-1.60" angle="90.00" type="human" speed="11.52" pos="16.64" lane="e0_0" slope="0.00"/>
    </timestep>
    <timestep time="33.00">
        <vehicle id="background.0" x="113.79" y="-1.60" angle="90.00" type="human" speed="13.80" pos="113.79" lane="e0_0" slope="0.00"/>
        <vehicle id="background.1" x="39.39" y="-1.60" angle="90.00" type="human" speed="13.89" pos="39.39" lane="e0_0" slope="0.00"/>
        <vehicle id="background.2" x="22.60" y="-1.60" angle="90.00" type="human" speed="11.94" pos="22.60" lane="e0_0" slope="0.00"/>
    </timestep>
    <timestep time="33.50">
        <vehicle id="background.0" x="120.72" y="-1.60" angle="90.00" type="human" speed="13.85" pos="120.72" lane="e0_0" slope="0.00"/>
        <vehicle id="background.1" x="46.17" y="-1.60" angle="90.00" type="human" speed="13.56" pos="46.17" lane="e0_0" slope="0.00"/>
        <vehicle id="background.2" x="28.70" y="-1.60" angle="90.00" type="human" speed="12.20" pos="28.70" lane="e0_0" slope="0.00"/>
    </timestep>
    <timestep time="34.00">
        <vehicle id="background.0" x="127.59" y="-1.60" angle="90.00" type="human" speed="13.74" pos="127.59" lane="e0_0" slope="0.00"/>
        <vehicle id="background.1" x="52.99" y="-1.60" angle="90.00" type="human" speed="13.65" pos="52.99" lane="e0_0" slope="0.00"/>
        <vehicle id="background.2" x="34.92" y="-1.60" angle="90.00" type="human" speed="12.44" pos="34.92" lane="e0_0" slope="0.00"/>
    </timestep>
    <timestep time="34.50">
        <vehicle id="background.0" x="134.31" y="-1.60" angle="90.00" type="human" speed="13.45" pos="134.31" lane="e0_0" slope="0.00"/>
        <vehicle id="background.1" x="59.69" y="-1.60" angle="90.00" type="human" speed="13.40" pos="59.69" lane="e0_0" slope="0.00"/>
        <vehicle id="background.2" x="41.17" y="-1.60" angle="90.00" type="human" speed="12.49" pos="41.17" lane="e0_0" slope="0.00"/>
    </timestep>
    <timestep time="35.00">
        <vehicle id="background.0" x="141.25" y="-1.60" angle="90.00" type="human" speed="13.88" pos="141.25" lane="e0_0" slope="0.00"/>
        <vehicle id="background.1" x="66.54" y="-1.60" angle="90.00" type="human" speed="13.70" pos="66.54" lane="e0_0" slope="0.00"/>
        <vehicle id="background.2" x="47.46" y="-1.60" angle="90.00" type="human" speed="12.57" pos="47.46" lane="e0_0" slope="0.00"/>
    </timestep>
    <timestep time="35.50">
        <vehicle id="background.0" x="148.05" y="-1.60" angle="90.00" type="human" speed="13.60" pos="148.05" lane="e0_0" slope="0.00"/>
        <vehicle id="background.1" x="73.34" y="-1.60" angle="90.00" type="human" speed="13.60" pos="73.34" lane="e0_0" slope="0.00"/>
        <vehicle id="background.2" x="53.75" y="-1.60" angle="90.00" type="human" speed="12.59" pos="53.75" lane="e0_0" slope="0.00"/>
    </timestep>
    <timestep time="36.00">
        <vehicle id="background.0" x="154.98" y="-1.60" angle="90.00" type="human" speed="13.85" pos="154.98" lane="e0_0" slope="0.00"/>
        <vehicle id="background.1" x="80.09" y="-1.60" angle="90.00" type="human" speed="13.51" pos="80.09" lane="e0_0" slope="0.00"/>
        <vehicle id="background.2" x="59.88" y="-1.60" angle="90.00" type="human" speed="12.26" pos="59.88" lane="e0_0" slope="0.00"/>
    </timestep>
    <timestep time="36.50">
        <vehicle id="background.0" x="161.85" y="-1.60" angle="90.00" type="human" speed="13.73" pos="161.85" lane="e0_0" slope="0.00"/>
        <vehicle id="background.1" x="86.86" y="-1.60" angle="90.00" type="human" speed="13.53" pos="86.86" lane="e0_0" slope="0.00"/>
        <vehicle id="background.2" x="66.05" y="-1.60" angle="90.00" type="human" speed="12.33" pos="66.05" lane="e0_0" slope="0.00"/>
    </timestep>
    <timestep time="37.00">
        <vehicle id="background.0" x="168.75" y="-1.60" angle="90.00" type="human" speed="13.80" pos="168.75" lane="e0_0" slope="0.00"/>
        <vehicle id="background.1" x="93.80" y="-1.60" angle="90.00" type="human" speed="13.87" pos="93.80" lane="e0_0" slope="0.00"/>
        <vehicle id="background.2" x="72.28" y="-1.60" angle="90.00" type="human" speed="12.47" pos="72.28" lane="e0_0" slope="0.00"/>
    </timestep>
    <timestep time="37.50">
        <vehicle id="background.0" x="175.65" y="-1.60" angle="90.00" type="human" speed="13.81" pos="175.65" lane="e0_0" slope="0.00"/>
        <vehicle id="background.1" x="100.67" y="-1.60" angle="90.00" type="human" speed="13.75" pos="100.67" lane="e0_0" slope="0.00"/>
        <vehicle id="background.2" x="78.50" y="-1.60" angle="90.00" type="human" speed="12.43" pos="78.50" lane="e0_0" slope="0.00"/>
    </timestep>
    <timestep time="38.00">
        <vehicle id="background.0" x="182.51" y="-1.60" angle="90.00" type="human" speed="13.71" pos="182.51" lane="e0_0" slope="0.00"/>
        <vehicle id="background.1" x="107.56" y="-1.60" angle="90.00" type="human" speed="13.78" pos="107.56" lane="e0_0" slope="0.00"/>
        <vehicle id="background.2" x="84.62" y="-1.60" angle="90.00" type="human" speed="12.23" pos="84.62" lane="e0_0" slope="0.00"/>
    </timestep>
    <timestep time="38.50">
        <vehicle id="background.0" x="189.21" y="-1.60" angle="90.00" type="human" speed="13.41" pos="189.21" lane="e0_0" slope="0.00"/>
        <vehicle id="background.1" x="114.34" y="-1.60" angle="90.00" type="human" speed="13.57" pos="114.34" lane="e0_0" slope="0.00"/>
        <vehicle id="background.2" x="90.72" y="-1.60" angle="90.00" type="human" speed="12.20" pos="90.72" lane="e0_0" slope="0.00"/>
    </timestep>
    <timestep time="39.00">
        <vehicle id="background.0" x="196.06" y="-1.60" angle="90.00" type="human" speed="13.69" pos="196.06" lane="e0_0" slope="0.00"/>
        <vehicle id="background.1" x="121.07" y="-1.60" angle="90.00" type="human" speed="13.46" pos="121.07" lane="e0_0" slope="0.00"/>
        <vehicle id="background.2" x="96.94" y="-1.60" angle="90.00" type="human" speed="12.45" pos="96.94" lane="e0_0" slope="0.00"/>
    </timestep>
    <timestep time="39.50">
        <vehicle id="background.0" x="202.99" y="-1.60" angle="90.00" type="human" speed="13.87" pos="202.99" lane="e0_0" slope="0.00"/>
        <vehicle id="background.1" x="127.87" y="-1.60" angle="90.00" type="human" speed="13.60" pos="127.87" lane="e0_0" slope="0.00"/>
        <vehicle id="background.2" x="103.06" y="-1.60" angle="90.00" type="human" speed="12.25" pos="103.06" lane="e0_0" slope="0.00"/>
    </timestep>
    <timestep time="40.00">
        <vehicle id="background.0" x="209.78" y="-1.60" angle="90.00" type="human" speed="13.57" pos="209.78" lane="e0_0" slope="0.00"/>
        <vehicle id="background.1" x="134.59" y="-1.60" angle="90.00" type="human" speed="13.44" pos="134.59" lane="e0_0" slope="0.00"/>
        <vehicle id="background.2" x="109.14" y="-1.60" angle="90.00" type="human" speed="12.16" pos="109.14" lane="e0_0" slope="0.00"/>
    </timestep>
    <timestep time="40.50">
        <vehicle id="background.0" x="216.55" y="-1.60" angle="90.00" type="human" speed="13.54" pos="216.55" lane="e0_0" slope="0.00"/>
        <vehicle id="background.1" x="141.46" y="-1.60" angle="90.00" type="human" speed="13.73" pos="141.46" lane="e0_0" slope="0.00"/>
        <vehicle id="background.2" x="115.41" y="-1.60" angle="90.00" type="human" speed="12.53" pos="115.41" lane="e0_0" slope="0.00"/>
    </timestep>
    <timestep time="41.00">
        <vehicle id="background.0" x="223.32" y="-1.60" angle="90.00" type="human" speed="13.55" pos="223.32" lane="e0_0" slope="0.00"/>
        <vehicle id="background.1" x="148.30" y="-1.60" angle="90.00" type="human" speed="13.68" pos="148.30" lane="e0_0" slope="0.00"/>
        <vehicle id="background.2" x="121.65" y="-1.60" angle="90.00" type="human" speed="12.48" pos="121.65" lane="e0_0" slope="0.00"/>
    </timestep>
    <timestep time="41.50">
        <vehicle id="background.0" x="230.02" y="-1.60" angle="90.00" type="human" speed="13.40" pos="230.02" lane="e0_0" slope="0.00"/>
        <vehicle id="background.1" x="155.23" y="-1.60" angle="90.00" type="human" speed="13.87" pos="155.23" lane="e0_0" slope="0.00"/>
        <vehicle id="background.2" x="127.89" y="-1.60" angle="90.00" type="human" speed="12.48" pos="127.89" lane="e0_0" slope="0.00"/>
    </timestep>
    <timestep time="42.00">
        <vehicle id="background.0" x="236.92" y="-1.60" angle="90.00" type="human" speed="13.81" pos="236.92" lane="e0_0" slope="0.00"/>
        <vehicle id="background.1" x="162.03" y="-1.60" angle="90.00" type="human" speed="13.59" pos="162.03" lane="e0_0" slope="0.00"/>
        <vehicle id="background.2" x="133.98" y="-1.60" angle="90.00" type="human" speed="12.18" pos="133.98" lane="e0_0" slope="0.00"/>
    </timestep>
    <timestep time="42.50">
        <vehicle id="background.0" x="243.73" y="-1.60" angle="90.00" type="human" speed="13.62" pos="243.73" lane="e0_0" slope="0.00"/>
        <vehicle id="background.1" x="168.86" y="-1.60" angle="90.00" type="human" speed="13.67" pos="168.86" lane="e0_0" slope="0.00"/>
        <vehicle id="background.2" x="140.19" y="-1.60" angle="90.00" type="human" speed="12.42" pos="140.19" lane="e0_0" slope="0.00"/>
    </timestep>
    <timestep time="43.00">
        <vehicle id="background.0" x="250.54" y="-1.60" angle="90.00" type="human" speed="13.62" pos="250.54" lane="e0_0" slope="0.00"/>
        <vehicle id="background.1" x="175.75" y="-1.60" angle="90.00" type="human" speed="13.78" pos="175.75" lane="e0_0" slope="0.00"/>
        <vehicle id="background.2" x="146.36" y="-1.60" angle="90.00" type="human" speed="12.35" pos="146.36" lane="e0_0" slope="0.00"/>
    </timestep>
    <timestep time="43.50">
        <vehicle id="background.0" x="257.26" y="-1.60" angle="90.00" type="human" speed="13.43" pos="257.26" lane="e0_0" slope="0.00"/>
        <vehicle id="background.1" x="182.54" y="-1.60" angle="90.00" type="human" speed="13.58" pos="182.54" lane="e0_0" slope="0.00"/>
        <vehicle id="background.2" x="152.53" y="-1.60" angle="90.00" type="human" speed="12.34" pos="152.53" lane="e0_0" slope="0.00"/>
    </timestep>
    <timestep time="44.00">
        <vehicle id="background.0" x="264.19" y="-1.60" angle="90.00" type="human" speed="13.87" pos="264.19" lane="e0_0" slope="0.00"/>
        <vehicle id="background.1" x="189.43" y="-1.60" angle="90.00" type="human" speed="13.78" pos="189.43" lane="e0_0" slope="0.00"/>
        <vehicle id="background.2" x="158.69" y="-1.60" angle="90.00" type="human" speed="12.32" pos="158.69" lane="e0_0" slope="0.00"/>
    </timestep>
    <timestep time="44.50">
        <vehicle id="background.0" x="271.13" y="-1.60" angle="90.00" type="human" speed="13.87" pos="271.13" lane="e0_0" slope="0.00"/>
        <vehicle id="background.1" x="196.20" y="-1.60" angle="90.00" type="human" speed="13.53" pos="196.20" lane="e0_0" slope="0.00"/>
        <vehicle id="background.2" x="164.88" y="-1.60" angle="90.00" type="human" speed="12.37" pos="164.88" lane="e0_0" slope="0.00"/>
    </timestep>
    <timestep time="45.00">
        <vehicle id="background.0" x="277.99" y="-1.60" angle="90.00" type="human" speed="13.73" pos="277.99" lane="e0_0" slope="0.00"/>
        <vehicle id="background.1" x="203.12" y="-1.60" angle="90.00" type="human" speed="13.84" pos="203.12" lane="e0_0" slope="0.00"/>
        <vehicle id="background.2" x="171.13" y="-1.60" angle="90.00" type="human" speed="12.51" pos="171.13" lane="e0_0" slope="0.00"/>
    </timestep>
    <timestep time="45.50">
        <vehicle id="background.0" x="284.10" y="-1.60" angle="90.00" type="human" speed="12.22" pos="284.10" lane="e0_0" slope="0.00"/>
        <vehicle id="background.1" x="209.84" y="-1.60" angle="90.00" type="human" speed="13.44" pos="209.84" lane="e0_0" slope="0.00"/>
        <vehicle id="background.2" x="177.29" y="-1.60" angle="90.00" type="human" speed="12.31" pos="177.29" lane="e0_0" slope="0.00"/>
    </timestep>
    <timestep time="46.00">
        <vehicle id="background.0" x="289.30" y="-1.60" angle="90.00" type="human" speed="10.40" pos="289.30" lane="e0_0" slope="0.00"/>
        <vehicle id="background.1" x="216.55" y="-1.60" angle="90.00" type="human" speed="13.42" pos="216.55" lane="e0_0" slope="0.00"/>
        <vehicle id="background.2" x="183.45" y="-1.60" angle="90.00" type="human" speed="12.33" pos="183.45" lane="e0_0" slope="0.00"/>
    </timestep>
    <timestep time="46.50">
        <vehicle id="background.0" x="293.39" y="-1.60" angle="90.00" type="human" speed="8.18" pos="293.39" lane="e0_0" slope="0.00"/>
        <vehicle id="background.1" x="223.35" y="-1.60" angle="90.00" type="human" speed="13.60" pos="223.35" lane="e0_0" slope="0.00"/>
        <vehicle id="background.2" x="189.77" y="-1.60" angle="90.00" type="human" speed="12.64" pos="189.77" lane="e0_0" slope="0.00"/>
    </timestep>
    <timestep time="47.00">
        <vehicle id="background.0" x="296.36" y="-1.60" angle="90.00" type="human" speed="5.93" pos="296.36" lane="e0_0" slope="0.00"/>
        <vehicle id="background.1" x="230.24" y="-1.60" angle="90.00" type="human" speed="13.78" pos="230.24" lane="e0_0" slope="0.00"/>
        <vehicle id="background.2" x="196.03" y="-1.60" angle="90.00" type="human" speed="12.52" pos="196.03" lane="e0_0" slope="0.00"/>
    </timestep>
    <timestep time="47.50">
        <vehicle id="background.0" x="298.19" y="-1.60" angle="90.00" type="human" speed="3.68" pos="298.19" lane="e0_0" slope="0.00"/>
        <vehicle id="background.1" x="237.14" y="-1.60" angle="90.00" type="human" speed="13.80" pos="237.14" lane="e0_0" slope="0.00"/>
        <vehicle id="background.2" x="202.17" y="-1.60" angle="90.00" type="human" speed="12.28" pos="202.17" lane="e0_0" slope="0.00"/>
    </timestep>
    <timestep time="48.00">
        <vehicle id="background.0" x="298.99" y="-1.60" angle="90.00" type="human" speed="1.60" pos="298.99" lane="e0_0" slope="0.00"/>
        <vehicle id="background.1" x="244.02" y="-1.60" angle="90.00" type="human" speed="13.76" pos="244.02" lane="e0_0" slope="0.00"/>
        <vehicle id="background.2" x="208.48" y="-1.60" angle="90.00" type="human" speed="12.61" pos="208.48" lane="e0_0" slope="0.00"/>
    </timestep>
    <timestep time="48.50">
        <vehicle id="background.0" x="299.00" y="-1.60" angle="90.00" type="human" speed="0.01" pos="299.00" lane="e0_0" slope="0.00"/>
        <vehicle id="background.1" x="250.74" y="-1.60" angle="90.00" type="human" speed="13.44" pos="250.74" lane="e0_0" slope="0.00"/>
        <vehicle id="background.2" x="214.74" y="-1.60" angle="90.00" type="human" speed="12.53" pos="214.74" lane="e0_0" slope="0.00"/>
    </timestep>
    <timestep time="49.00">
        <vehicle id="background.0" x="299.00" y="-1.60" angle="90.00" type="human" speed="0.00" pos="299.00" lane="e0_0" slope="0.00"/>
        <vehicle id="background.1" x="257.66" y="-1.60" angle="90.00" type="human" speed="13.84" pos="257.66" lane="e0_0" slope="0.00"/>
        <vehicle id="background.2" x="220.87" y="-1.60" angle="90.00" type="human" speed="12.25" pos="220.87" lane="e0_0" slope="0.00"/>
    </timestep>
    <timestep time="49.50">
        <vehicle id="background.0" x="299.00" y="-1.60" angle="90.00" type="human" speed="0.00" pos="299.00" lane="e0_0" slope="0.00"/>
        <vehicle id="background.1" x="264.60" y="-1.60" angle="90.00" type="human" speed="13.89" pos="264.60" lane="e0_0" slope="0.00"/>
        <vehicle id="background.2" x="226.97" y="-1.60" angle="90.00" type="human" speed="12.20" pos="226.97" lane="e0_0" slope="0.00"/>
    </timestep>
    <timestep time="50.00">
        <vehicle id="background.0" x="299.00" y="-1.60" angle="90.00" type="human" speed="0.00" pos="299.00" lane="e0_0" slope="0.00"/>
        <vehicle id="background.1" x="270.84" y="-1.60" angle="90.00" type="human" speed="12.48" pos="270.84" lane="e0_0" slope="0.00"/>
        <vehicle id="background.2" x="233.24" y="-1.60" angle="90.00" type="human" speed="12.55" pos="233.24" lane="e0_0" slope="0.00"/>
    </timestep>
    <timestep time="50.50">
        <vehicle id="background.0" x="299.00" y="-1.60" angle="90.00" type="human" speed="0.00" pos="299.00" lane="e0_0" slope="0.00"/>
        <vehicle id="background.1" x="276.05" y="-1.60" angle="90.00" type="human" speed="10.43" pos="276.05" lane="e0_0" slope="0.00"/>
        <vehicle id="background.2" x="239.56" y="-1.60" angle="90.00" type="human" speed="12.63" pos="239.56" lane="e0_0" slope="0.00"/>
    </timestep>
    <timestep time="51.00">
        <vehicle id="background.0" x="299.00" y="-1.60" angle="90.00" type="human" speed="0.00" pos="299.00" lane="e0_0" slope="0.00"/>
        <vehicle id="background.1" x="280.32" y="-1.60" angle="90.00" type="human" speed="8.53" pos="280.32" lane="e0_0" slope="0.00"/>
        <vehicle id="background.2" x="245.86" y="-1.60" angle="90.00" type="human" speed="12.61" pos="245.86" lane="e0_0" slope="0.00"/>
    </timestep>
    <timestep time="51.50">
        <vehicle id="background.0" x="299.00" y="-1.60" angle="90.00" type="human" speed="0.00" pos="299.00" lane="e0_0" slope="0.00"/>
        <vehicle id="background.1" x="283.78" y="-1.60" angle="90.00" type="human" speed="6.92" pos="283.78" lane="e0_0" slope="0.00"/>
        <vehicle id="background.2" x="252.16" y="-1.60" angle="90.00" type="human" speed="12.59" pos="252.16" lane="e0_0" slope="0.00"/>
        <vehicle id="ego" x="5.10" y="-1.60" angle="90.00" type="ego_type" speed="0.00" pos="5.10" lane="e0_0" slope="0.00"/>
    </timestep>
    <timestep time="52.00">
        <vehicle id="background.0" x="299.00" y="-1.60" angle="90.00" type="human" speed="0.00" pos="299.00" lane="e0_0" slope="0.00"/>
        <vehicle id="background.1" x="286.37" y="-1.60" angle="90.00" type="human" speed="5.19" pos="286.37" lane="e0_0" slope="0.00"/>
        <vehicle id="background.2" x="258.33" y="-1.60" angle="90.00" type="human" speed="12.35" pos="258.33" lane="e0_0" slope="0.00"/>
        <vehicle id="ego" x="5.60" y="-1.60" angle="90.00" type="ego_type" speed="1.00" pos="5.60" lane="e0_0" slope="0.00"/>
    </timestep>
    <timestep time="52.50">
        <vehicle id="background.0" x="299.00" y="-1.60" angle="90.00" type="human" speed="0.00" pos="299.00" lane="e0_0" slope="0.00"/>
        <vehicle id="background.1" x="288.41" y="-1.60" angle="90.00" type="human" speed="4.08" pos="288.41" lane="e0_0" slope="0.00"/>
        <vehicle id="background.2" x="263.80" y="-1.60" angle="90.00" type="human" speed="10.93" pos="263.80" lane="e0_0" slope="0.00"/>
        <vehicle id="ego" x="6.60" y="-1.60" angle="90.00" type="ego_type" speed="2.00" pos="6.60" lane="e0_0" slope="0.00"/>
    </timestep>
    <timestep time="53.00">
        <vehicle id="background.0" x="299.00" y="-1.60" angle="90.00" type="human" speed="0.00" pos="299.00" lane="e0_0" slope="0.00"/>
        <vehicle id="background.1" x="289.57" y="-1.60" angle="90.00" type="human" speed="2.32" pos="289.57" lane="e0_0" slope="0.00"/>
        <vehicle id="background.2" x="268.46" y="-1.60" angle="90.00" type="human" speed="9.32" pos="268.46" lane="e0_0" slope="0.00"/>
        <vehicle id="ego" x="8.10" y="-1.60" angle="90.00" type="ego_type" speed="3.00" pos="8.10" lane="e0_0" slope="0.00"/>
    </timestep>
    <timestep time="53.50">
        <vehicle id="background.0" x="299.00" y="-1.60" angle="90.00" type="human" speed="0.00" pos="299.00" lane="e0_0" slope="0.00"/>
        <vehicle id="background.1" x="290.44" y="-1.60" angle="90.00" type="human" speed="1.73" pos="290.44" lane="e0_0" slope="0.00"/>
        <vehicle id="background.2" x="272.41" y="-1.60" angle="90.00" type="human" speed="7.90" pos="272.41" lane="e0_0" slope="0.00"/>
        <vehicle id="ego" x="10.10" y="-1.60" angle="90.00" type="ego_type" speed="4.00" pos="10.10" lane="e0_0" slope="0.00"/>
    </timestep>
    <timestep time="54.00">
        <vehicle id="background.0" x="299.00" y="-1.60" angle="90.00" type="human" speed="0.00" pos="299.00" lane="e0_0" slope="0.00"/>
        <vehicle id="background.1" x="290.88" y="-1.60" angle="90.00" type="human" speed="0.89" pos="290.88" lane="e0_0" slope="0.00"/>
        <vehicle id="background.2" x="275.78" y="-1.60" angle="90.00" type="human" speed="6.73" pos="275.78" lane="e0_0" slope="0.00"/>
        <vehicle id="background.3" x="5.10" y="-1.60" angle="90.00" type="human" speed="1.62" pos="5.10" lane="e0_0" slope="0.00"/>
        <vehicle id="ego" x="12.60" y="-1.60" angle="90.00" type="ego_type" speed="5.00" pos="12.60" lane="e0_0" slope="0.00"/>
    </timestep>
    <timestep time="54.50">
        <vehicle id="background.0" x="299.00" y="-1.60" angle="90.00" type="human" speed="0.00" pos="299.00" lane="e0_0" slope="0.00"/>
        <vehicle id="background.1" x="291.18" y="-1.60" angle="90.00" type="human" speed="0.60" pos="291.18" lane="e0_0" slope="0.00"/>
        <vehicle id="background.2" x="278.31" y="-1.60" angle="90.00" type="human" speed="5.08" pos="278.31" lane="e0_0" slope="0.00"/>
        <vehicle id="background.3" x="5.73" y="-1.60" angle="90.00" type="human" speed="1.25" pos="5.73" lane="e0_0" slope="0.00"/>
        <vehicle id="ego" x="15.60" y="-1.60" angle="90.00" type="ego_type" speed="6.00" pos="15.60" lane="e0_0" slope="0.00"/>
    </timestep>
    <timestep time="55.00">
        <vehicle id="background.0" x="299.00" y="-1.60" angle="90.00" type="human" speed="0.00" pos="299.00" lane="e0_0" slope="0.00"/>
        <vehicle id="background.1" x="291.33" y="-1.60" angle="90.00" type="human" speed="0.31" pos="291.33" lane="e0_0" slope="0.00"/>
        <vehicle id="background.2" x="280.24" y="-1.60" angle="90.00" type="human" speed="3.85" pos="280.24" lane="e0_0" slope="0.00"/>
        <vehicle id="background.3" x="6.71" y="-1.60" angle="90.00" type="human" speed="1.97" pos="6.71" lane="e0_0" slope="0.00"/>
        <vehicle id="ego" x="19.10" y="-1.60" angle="90.00" type="ego_type" speed="7.00" pos="19.10" lane="e0_0" slope="0.00"/>
    </timestep>
    <timestep time="55.50">
        <vehicle id="background.0" x="299.00" y="-1.60" angle="90.00" type="human" speed="0.00" pos="299.00" lane="e0_0" slope="0.00"/>
        <vehicle id="background.1" x="291.41" y="-1.60" angle="90.00" type="human" speed="0.15" pos="291.41" lane="e0_0" slope="0.00"/>
        <vehicle id="background.2" x="281.76" y="-1.60" angle="90.00" type="human" speed="3.04" pos="281.76" lane="e0_0" slope="0.00"/>
        <vehicle id="background.3" x="8.02" y="-1.60" angle="90.00" type="human" speed="2.62" pos="8.02" lane="e0_0" slope="0.00"/>
        <vehicle id="ego" x="23.10" y="-1.60" angle="90.00" type="ego_type" speed="8.00" pos="23.10" lane="e0_0" slope="0.00"/>
    </timestep>
    <timestep time="56.00">
        <vehicle id="background.0" x="299.00" y="-1.60" angle="90.00" type="human" speed="0.00" pos="299.00" lane="e0_0" slope="0.00"/>
        <vehicle id="background.1" x="291.45" y="-1.60" angle="90.00" type="human" speed="0.08" pos="291.45" lane="e0_0" slope="0.00"/>
        <vehicle id="background.2" x="282.80" y="-1.60" angle="90.00" type="human" speed="2.08" pos="282.80" lane="e0_0" slope="0.00"/>
        <vehicle id="background.3" x="9.64" y="-1.60" angle="90.00" type="human" speed="3.25" pos="9.64" lane="e0_0" slope="0.00"/>
        <vehicle id="ego" x="27.60" y="-1.60" angle="90.00" type="ego_type" speed="9.00" pos="27.60" lane="e0_0" slope="0.00"/>
    </timestep>
    <timestep time="56.50">
        <vehicle id="background.0" x="299.00" y="-1.60" angle="90.00" type="human" speed="0.00" pos="299.00" lane="e0_0" slope="0.00"/>