<?xml version="1.0" encoding="UTF-8"?>

<!-- generated on 2026-05-14 17:04:17 by Eclipse SUMO sumo Version 1.24.0
<sumoConfiguration xmlns:xsi="http://www.w3.org/2001/XMLSchema-instance" xsi:noNamespaceSchemaLocation="http://sumo.dlr.de/xsd/sumoConfiguration.xsd">

    <input>
        <net-file value="scenarios/simple_arterial/simple_arterial.net.xml"/>
        <route-files value="scenarios/simple_arterial/simple_arterial.rou.xml"/>
        <additional-files value="scenarios/simple_arterial/simple_arterial.tls.xml"/>
    </input>

    <output>
        <fcd-output value="runs/fcd_expert_default/episode_00026_seed_68.fcd.xml"/>
    </output>

    <time>
        <begin value="0"/>
        <end value="900"/>
        <step-length value="0.5"/>
    </time>

    <report>
        <no-warnings value="true"/>
    </report>

    <traci_server>
        <remote-port value="24542"/>
    </traci_server>

    <random_number>
        <seed value="68"/>
    </random_number>

</sumoConfiguration>
-->

<fcd-export xmlns:xsi="http://www.w3.org/2001/XMLSchema-instance" xsi:noNamespaceSchemaLocation="http://sumo.dlr.de/xsd/fcd_file.xsd">
    <timestep time="0.00"/>
    <timestep time="0.50"/>
    <timestep time="1.00"/>
    <timestep time="1.50"/>
    <timestep time="2.00"/>
    <timestep time="2.50"/>
    <timestep time="3.00"/>
    <timestep time="3.50"/>
    <timestep time="4.00"/>
    <timestep time="4.50"/>
    <timestep time="5.00"/>
    <timestep time="5.50"/>
    <timestep time="6.00"/>
    <timestep time="6.50"/>
    <timestep time="7.00"/>
    <timestep time="7.50"/>
    <timestep time="8.00"/>
    <timestep time="8.50"/>
    <timestep time="9.00"/>
    <timestep time="9.50"/>
    <timestep time="10.00"/>
    <timestep time="10.50"/>
    <timestep time="11.00"/>
    <timestep time="11.50"/>
    <timestep time="12.00"/>
    <timestep time="12.50"/>
    <timestep time="13.00"/>
    <timestep time="13.50"/>
    <timestep time="14.00"/>
    <timestep time="14.50"/>
    <timestep time="15.00"/>
    <timestep time="15.50"/>
    <timestep time="16.00"/>
    <timestep time="16.50"/>
    <timestep time="17.00"/>
    <timestep time="17.50"/>
    <timestep time="18.00"/>
    <timestep time="18.50"/>
    <timestep time="19.00"/>
    <timestep time="19.50"/>
    <timestep time="20.00"/>
    <timestep time="20.50"/>
    <timestep time="21.00"/>
    <timestep time="21.50"/>
    <timestep time="22.00"/>
    <timestep time="22.50"/>
    <timestep time="23.00"/>
    <timestep time="23.50"/>
    <timestep time="24.00"/>
    <timestep time="24.50"/>
    <timestep time="25.00"/>
    <timestep time="25.50"/>
    <timestep time="26.00"/>
    <timestep time="26.50"/>
    <timestep time="27.00"/>
    <timestep time="27.50"/>
    <timestep time="28.00"/>
    <timestep time="28.50"/>
    <timestep time="29.00"/>
    <timestep time="29.50"/>
    <timestep time="30.00"/>
    <timestep time="30.50"/>
    <timestep time="31.00"/>
    <timestep time="31.50"/>
    <timestep time="32.00"/>
    <timestep time="32.50"/>
    <timestep time="33.00"/>
    <timestep time="33.50"/>
    <timestep time="34.00">
        <vehicle id="background.0" x="5.10" y="-1.60" angle="90.00" type="human" speed="11.80" pos="5.10" lane="e0_0" slope="0.00"/>
    </timestep>
    <timestep time="34.50">
        <vehicle id="background.0" x="10.92" y="-1.60" angle="90.00" type="human" speed="11.65" pos="10.92" lane="e0_0" slope="0.00"/>
    </timestep>
    <timestep time="35.00">
        <vehicle id="background.0" x="16.72" y="-1.60" angle="90.00" type="human" speed="11.59" pos="16.72" lane="e0_0" slope="0.00"/>
    </timestep>
    <timestep time="35.50">
        <vehicle id="background.0" x="22.42" y="-1.60" angle="90.00" type="human" speed="11.39" pos="22.42" lane="e0_0" slope="0.00"/>
    </timestep>
    <timestep time="36.00">
        <vehicle id="background.0" x="28.17" y="-1.60" angle="90.00" type="human" speed="11.50" pos="28.17" lane="e0_0" slope="0.00"/>
    </timestep>
    <timestep time="36.50">
        <vehicle id="background.0" x="33.98" y="-1.60" angle="90.00" type="human" speed="11.62" pos="33.98" lane="e0_0" slope="0.00"/>
    </timestep>
    <timestep time="37.00">
        <vehicle id="background.0" x="39.83" y="-1.60" angle="90.00" type="human" speed="11.71" pos="39.83" lane="e0_0" slope="0.00"/>
    </timestep>
    <timestep time="37.50">
        <vehicle id="background.0" x="45.53" y="-1.60" angle="90.00" type="human" speed="11.40" pos="45.53" lane="e0_0" slope="0.00"/>
    </timestep>
    <timestep time="38.00">
        <vehicle id="background.0" x="51.22" y="-1.60" angle="90.00" type="human" speed="11.37" pos="51.22" lane="e0_0" slope="0.00"/>
    </timestep>
    <timestep time="38.50">
        <vehicle id="background.0" x="56.97" y="-1.60" angle="90.00" type="human" speed="11.51" pos="56.97" lane="e0_0" slope="0.00"/>
    </timestep>
    <timestep time="39.00">
        <vehicle id="background.0" x="62.83" y="-1.60" angle="90.00" type="human" speed="11.72" pos="62.83" lane="e0_0" slope="0.00"/>
    </timestep>
    <timestep time="39.50">
        <vehicle id="background.0" x="68.67" y="-1.60" angle="90.00" type="human" speed="11.67" pos="68.67" lane="e0_0" slope="0.00"/>
    </timestep>
    <timestep time="40.00">
        <vehicle id="background.0" x="74.50" y="-1.60" angle="90.00" type="human" speed="11.65" pos="74.50" lane="e0_0" slope="0.00"/>
    </timestep>
    <timestep time="40.50">
        <vehicle id="background.0" x="80.37" y="-1.60" angle="90.00" type="human" speed="11.74" pos="80.37" lane="e0_0" slope="0.00"/>
    </timestep>
    <timestep time="41.00">
        <vehicle id="background.0" x="86.10" y="-1.60" angle="90.00" type="human" speed="11.46" pos="86.10" lane="e0_0" slope="0.00"/>
    </timestep>
    <timestep time="41.50">
        <vehicle id="background.0" x="91.98" y="-1.60" angle="90.00" type="human" speed="11.77" pos="91.98" lane="e0_0" slope="0.00"/>
    </timestep>
    <timestep time="42.00">
        <vehicle id="background.0" x="97.82" y="-1.60" angle="90.00" type="human" speed="11.67" pos="97.82" lane="e0_0" slope="0.00"/>
    </timestep>
    <timestep time="42.50">
        <vehicle id="background.0" x="103.55" y="-1.60" angle="90.00" type="human" speed="11.46" pos="103.55" lane="e0_0" slope="0.00"/>
    </timestep>
    <timestep time="43.00">
        <vehicle id="background.0" x="109.29" y="-1.60" angle="90.00" type="human" speed="11.48" pos="109.29" lane="e0_0" slope="0.00"/>
    </timestep>
    <timestep time="43.50">
        <vehicle id="background.0" x="115.01" y="-1.60" angle="90.00" type="human" speed="11.45" pos="115.01" lane="e0_0" slope="0.00"/>
    </timestep>
    <timestep time="44.00">
        <vehicle id="background.0" x="120.89" y="-1.60" angle="90.00" type="human" speed="11.75" pos="120.89" lane="e0_0" slope="0.00"/>
        <vehicle id="ego" x="5.10" y="-1.60" angle="90.00" type="ego_type" speed="0.00" pos="5.10" lane="e0_0" slope="0.00"/>
    </timestep>
    <timestep time="44.50">
        <vehicle id="background.0" x="126.60" y="-1.60" angle="90.00" type="human" speed="11.43" pos="126.60" lane="e0_0" slope="0.00"/>
        <vehicle id="ego" x="5.60" y="-1.60" angle="90.00" type="ego_type" speed="1.00" pos="5.60" lane="e0_0" slope="0.00"/>
    </timestep>
    <timestep time="45.00">
        <vehicle id="background.0" x="132.30" y="-1.60" angle="90.00" type="human" speed="11.40" pos="132.30" lane="e0_0" slope="0.00"/>
        <vehicle id="ego" x="6.60" y="-1.60" angle="90.00" type="ego_type" speed="2.00" pos="6.60" lane="e0_0" slope="0.00"/>
    </timestep>
    <timestep time="45.50">
        <vehicle id="background.0" x="138.18" y="-1.60" angle="90.00" type="human" speed="11.76" pos="138.18" lane="e0_0" slope="0.00"/>
        <vehicle id="ego" x="8.10" y="-1.60" angle="90.00" type="ego_type" speed="3.00" pos="8.10" lane="e0_0" slope="0.00"/>
    </timestep>
    <timestep time="46.00">
        <vehicle id="background.0" x="144.00" y="-1.60" angle="90.00" type="human" speed="11.64" pos="144.00" lane="e0_0" slope="0.00"/>
        <vehicle id="ego" x="10.10" y="-1.60" angle="90.00" type="ego_type" speed="4.00" pos="10.10" lane="e0_0" slope="0.00"/>
    </timestep>
    <timestep time="46.50">
        <vehicle id="background.0" x="149.71" y="-1.60" angle="90.00" type="human" speed="11.42" pos="149.71" lane="e0_0" slope="0.00"/>
        <vehicle id="ego" x="12.60" y="-1.60" angle="90.00" type="ego_type" speed="5.00" pos="12.60" lane="e0_0" slope="0.00"/>
    </timestep>
    <timestep time="47.00">
        <vehicle id="background.0" x="155.53" y="-1.60" angle="90.00" type="human" speed="11.63" pos="155.53" lane="e0_0" slope="0.00"/>
        <vehicle id="ego" x="15.60" y="-1.60" angle="90.00" type="ego_type" speed="6.00" pos="15.60" lane="e0_0" slope="0.00"/>
    </timestep>
    <timestep time="47.50">
        <vehicle id="background.0" x="161.31" y="-1.60" angle="90.00" type="human" speed="11.56" pos="161.31" lane="e0_0" slope="0.00"/>
        <vehicle id="ego" x="19.10" y="-1.60" angle="90.00" type="ego_type" speed="7.00" pos="19.10" lane="e0_0" slope="0.00"/>
    </timestep>
    <timestep time="48.00">
        <vehicle id="background.0" x="167.16" y="-1.60" angle="90.00" type="human" speed="11.70" pos="167.16" lane="e0_0" slope="0.00"/>
        <vehicle id="ego" x="23.10" y="-1.60" angle="90.00" type="ego_type" speed="8.00" pos="23.10" lane="e0_0" slope="0.00"/>
    </timestep>
    <timestep time="48.50">
        <vehicle id="background.0" x="172.98" y="-1.60" angle="90.00" type="human" speed="11.63" pos="172.98" lane="e0_0" slope="0.00"/>
        <vehicle id="ego" x="27.60" y="-1.60" angle="90.00" type="ego_type" speed="9.00" pos="27.60" lane="e0_0" slope="0.00"/>
    </timestep>
    <timestep time="49.00">
        <vehicle id="background.0" x="178.76" y="-1.60" angle="90.00" type="human" speed="11.57" pos="178.76" lane="e0_0" slope="0.00"/>
        <vehicle id="ego" x="32.60" y="-1.60" angle="90.00" type="ego_type" speed="10.00" pos="32.60" lane="e0_0" slope="0.00"/>
    </timestep>
    <timestep time="49.50">
        <vehicle id="background.0" x="184.52" y="-1.60" angle="90.00" type="human" speed="11.53" pos="184.52" lane="e0_0" slope="0.00"/>
        <vehicle id="ego" x="38.10" y="-1.60" angle="90.00" type="ego_type" speed="11.00" pos="38.10" lane="e0_0" slope="0.00"/>
    </timestep>
    <timestep time="50.00">
        <vehicle id="background.0" x="190.35" y="-1.60" angle="90.00" type="human" speed="11.65" pos="190.35" lane="e0_0" slope="0.00"/>
        <vehicle id="ego" x="44.00" y="-1.60" angle="90.00" type="ego_type" speed="11.80" pos="44.00" lane="e0_0" slope="0.00"/>
    </timestep>
    <timestep time="50.50">
        <vehicle id="background.0" x="196.18" y="-1.60" angle="90.00" type="human" speed="11.66" pos="196.18" lane="e0_0" slope="0.00"/>
        <vehicle id="ego" x="49.90" y="-1.60" angle="90.00" type="ego_type" speed="11.80" pos="49.90" lane="e0_0" slope="0.00"/>
    </timestep>
    <timestep time="51.00">
        <vehicle id="background.0" x="201.91" y="-1.60" angle="90.00" type="human" speed="11.46" pos="201.91" lane="e0_0" slope="0.00"/>
        <vehicle id="background.1" x="5.10" y="-1.60" angle="90.00" type="human" speed="13.89" pos="5.10" lane="e0_0" slope="0.00"/>
        <vehicle id="ego" x="55.79" y="-1.60" angle="90.00" type="ego_type" speed="11.80" pos="55.79" lane="e0_0" slope="0.00"/>
    </timestep>
    <timestep time="51.50">
        <vehicle id="background.0" x="207.74" y="-1.60" angle="90.00" type="human" speed="11.68" pos="207.74" lane="e0_0" slope="0.00"/>
        <vehicle id="background.1" x="11.88" y="-1.60" angle="90.00" type="human" speed="13.55" pos="11.88" lane="e0_0" slope="0.00"/>
        <vehicle id="ego" x="61.69" y="-1.60" angle="90.00" type="ego_type" speed="11.80" pos="61.69" lane="e0_0" slope="0.00"/>
    </timestep>
    <timestep time="52.00">
        <vehicle id="background.0" x="213.64" y="-1.60" angle="90.00" type="human" speed="11.79" pos="213.64" lane="e0_0" slope="0.00"/>
        <vehicle id="background.1" x="18.68" y="-1.60" angle="90.00" type="human" speed="13.61" pos="18.68" lane="e0_0" slope="0.00"/>
        <vehicle id="ego" x="67.59" y="-1.60" angle="90.00" type="ego_type" speed="11.80" pos="67.59" lane="e0_0" slope="0.00"/>
    </timestep>
    <timestep time="52.50">
        <vehicle id="background.0" x="219.44" y="-1.60" angle="90.00" type="human" speed="11.60" pos="219.44" lane="e0_0" slope="0.00"/>
        <vehicle id="background.1" x="25.54" y="-1.60" angle="90.00" type="human" speed="13.72" pos="25.54" lane="e0_0" slope="0.00"/>
        <vehicle id="ego" x="73.49" y="-1.60" angle="90.00" type="ego_type" speed="11.80" pos="73.49" lane="e0_0" slope="0.00"/>
    </timestep>
    <timestep time="53.00">
        <vehicle id="background.0" x="225.16" y="-1.60" angle="90.00" type="human" speed="11.43" pos="225.16" lane="e0_0" slope="0.00"/>
        <vehicle id="background.1" x="32.36" y="-1.60" angle="90.00" type="human" speed="13.65" pos="32.36" lane="e0_0" slope="0.00"/>
        <vehicle id="ego" x="79.38" y="-1.60" angle="90.00" type="ego_type" speed="11.80" pos="79.38" lane="e0_0" slope="0.00"/>
    </timestep>
    <timestep time="53.50">
        <vehicle id="background.0" x="230.81" y="-1.60" angle="90.00" type="human" speed="11.30" pos="230.81" lane="e0_0" slope="0.00"/>
        <vehicle id="background.1" x="39.18" y="-1.60" angle="90.00" type="human" speed="13.62" pos="39.18" lane="e0_0" slope="0.00"/>
        <vehicle id="ego" x="85.28" y="-1.60" angle="90.00" type="ego_type" speed="11.80" pos="85.28" lane="e0_0" slope="0.00"/>
    </timestep>
    <timestep time="54.00">
        <vehicle id="background.0" x="236.54" y="-1.60" angle="90.00" type="human" speed="11.46" pos="236.54" lane="e0_0" slope="0.00"/>
        <vehicle id="background.1" x="46.09" y="-1.60" angle="90.00" type="human" speed="13.83" pos="46.09" lane="e0_0" slope="0.00"/>
        <vehicle id="background.2" x="5.10" y="-1.60" angle="90.00" type="human" speed="12.51" pos="5.10" lane="e0_0" slope="0.00"/>
        <vehicle id="ego" x="91.18" y="-1.60" angle="90.00" type="ego_type" speed="11.80" pos="91.18" lane="e0_0" slope="0.00"/>
    </timestep>
    <timestep time="54.50">
        <vehicle id="background.0" x="242.34" y="-1.60" angle="90.00" type="human" speed="11.60" pos="242.34" lane="e0_0" slope="0.00"/>
        <vehicle id="background.1" x="53.01" y="-1.60" angle="90.00" type="human" speed="13.83" pos="53.01" lane="e0_0" slope="0.00"/>
        <vehicle id="background.2" x="11.17" y="-1.60" angle="90.00" type="human" speed="12.14" pos="11.17" lane="e0_0" slope="0.00"/>
        <vehicle id="ego" x="97.08" y="-1.60" angle="90.00" type="ego_type" speed="11.80" pos="97.08" lane="e0_0" slope="0.00"/>
    </timestep>
    <timestep time="55.00">
        <vehicle id="background.0" x="248.06" y="-1.60" angle="90.00" type="human" speed="11.44" pos="248.06" lane="e0_0" slope="0.00"/>
        <vehicle id="background.1" x="59.85" y="-1.60" angle="90.00" type="human" speed="13.68" pos="59.85" lane="e0_0" slope="0.00"/>
        <vehicle id="background.2" x="17.30" y="-1.60" angle="90.00" type="human" speed="12.27" pos="17.30" lane="e0_0" slope="0.00"/>
        <vehicle id="background.3" x="5.10" y="-1.60" angle="90.00" type="human" speed="9.91" pos="5.10" lane="e0_0" slope="0.00"/>
        <vehicle id="ego" x="102.97" y="-1.60" angle="90.00" type="ego_type" speed="11.80" pos="102.97" lane="e0_0" slope="0.00"/>
    </timestep>
    <timestep time="55.50">
        <vehicle id="background.0" x="253.84" y="-1.60" angle="90.00" type="human" speed="11.57" pos="253.84" lane="e0_0" slope="0.00"/>
        <vehicle id="background.1" x="66.71" y="-1.60" angle="90.00" type="human" speed="13.72" pos="66.71" lane="e0_0" slope="0.00"/>
        <vehicle id="background.2" x="23.51" y="-1.60" angle="90.00" type="human" speed="12.43" pos="23.51" lane="e0_0" slope="0.00"/>
        <vehicle id="background.3" x="10.03" y="-1.60" angle="90.00" type="human" speed="9.87" pos="10.03" lane="e0_0" slope="0.00"/>
        <vehicle id="ego" x="108.87" y="-1.60" angle="90.00" type="ego_type" speed="11.80" pos="108.87" lane="e0_0" slope="0.00"/>
    </timestep>
    <timestep time="56.00">
        <vehicle id="background.0" x="259.73" y="-1.60" angle="90.00" type="human" speed="11.78" pos="259.73" lane="e0_0" slope="0.00"/>
        <vehicle id="background.1" x="73.65" y="-1.60" angle="90.00" type="human" speed="13.88" pos="73.65" lane="e0_0" slope="0.00"/>
        <vehicle id="background.2" x="29.57" y="-1.60" angle="90.00" type="human" speed="12.10" pos="29.57" lane="e0_0" slope="0.00"/>
        <vehicle id="background.3" x="15.16" y="-1.60" angle="90.00" type="human" speed="10.25" pos="15.16" lane="e0_0" slope="0.00"/>
        <vehicle id="ego" x="114.77" y="-1.60" angle="90.00" type="ego_type" speed="11.80" pos="114.77" lane="e0_0" slope="0.00"/>
    </timestep>
    <timestep time="56.50">
        <vehicle id="background.0" x="265.58" y="-1.60" angle="90.00" type="human" speed="11.70" pos="265.58" lane="e0_0" slope="0.00"/>
        <vehicle id="background.1" x="80.48" y="-1.60" angle="90.00" type="human" speed="13.66" pos="80.48" lane="e0_0" slope="0.00"/>
        <vehicle id="background.2" x="35.68" y="-1.60" angle="90.00" type="human" speed="12.22" pos="35.68" lane="e0_0" slope="0.00"/>
        <vehicle id="background.3" x="20.37" y="-1.60" angle="90.00" type="human" speed="10.42" pos="20.37" lane="e0_0" slope="0.00"/>
        <vehicle id="ego" x="120.67" y="-1.60" angle="90.00" type="ego_type" speed="11.80" pos="120.67" lane="e0_0" slope="0.00"/>
    </timestep>
    <timestep time="57.00">
        <vehicle id="background.0" x="271.23" y="-1.60" angle="90.00" type="human" speed="11.30" pos="271.23" lane="e0_0" slope="0.00"/>
        <vehicle id="background.1" x="87.26" y="-1.60" angle="90.00" type="human" speed="13.57" pos="87.26" lane="e0_0" slope="0.00"/>
        <vehicle id="background.2" x="41.92" y="-1.60" angle="90.00" type="human" speed="12.49" pos="41.92" lane="e0_0" slope="0.00"/>
        <vehicle id="background.3" x="25.81" y="-1.60" angle="90.00" type="human" speed="10.88" pos="25.81" lane="e0_0" slope="0.00"/>
        <vehicle id="ego" x="126.57" y="-1.60" angle="90.00" type="ego_type" speed="11.80" pos="126.57" lane="e0_0" slope="0.00"/>
    </timestep>
    <timestep time="57.50">
        <vehicle id="background.0" x="277.09" y="-1.60" angle="90.00" type="human" speed="11.72" pos="277.09" lane="e0_0" slope="0.00"/>
        <vehicle id="background.1" x="94.15" y="-1.60" angle="90.00" type="human" speed="13.76" pos="94.15" lane="e0_0" slope="0.00"/>
        <vehicle id="background.2" x="48.02" y="-1.60" angle="90.00" type="human" speed="12.21" pos="48.02" lane="e0_0" slope="0.00"/>
        <vehicle id="background.3" x="31.48" y="-1.60" angle="90.00" type="human" speed="11.35" pos="31.48" lane="e0_0" slope="0.00"/>
        <vehicle id="ego" x="132.46" y="-1.60" angle="90.00" type="ego_type" speed="11.80" pos="132.46" lane="e0_0" slope="0.00"/>
    </timestep>
    <timestep time="58.00">
        <vehicle id="background.0" x="282.87" y="-1.60" angle="90.00" type="human" speed="11.55" pos="282.87" lane="e0_0" slope="0.00"/>
        <vehicle id="background.1" x="101.04" y="-1.60" angle="90.00" type="human" speed="13.79" pos="101.04" lane="e0_0" slope="0.00"/>
        <vehicle id="background.2" x="54.14" y="-1.60" angle="90.00" type="human" speed="12.23" pos="54.14" lane="e0_0" slope="0.00"/>
        <vehicle id="background.3" x="37.12" y="-1.60" angle="90.00" type="human" speed="11.27" pos="37.12" lane="e0_0" slope="0.00"/>
        <vehicle id="ego" x="138.36" y="-1.60" angle="90.00" type="ego_type" speed="11.80" pos="138.36" lane="e0_0" slope="0.00"/>
    </timestep>
    <timestep time="58.50">
        <vehicle id="background.0" x="288.10" y="-1.60" angle="90.00" type="human" speed="10.47" pos="288.10" lane="e0_0" slope="0.00"/>
        <vehicle id="background.1" x="107.76" y="-1.60" angle="90.00" type="human" speed="13.44" pos="107.76" lane="e0_0" slope="0.00"/>
        <vehicle id="background.2" x="60.34" y="-1.60" angle="90.00" type="human" speed="12.41" pos="60.34" lane="e0_0" slope="0.00"/>
        <vehicle id="background.3" x="42.75" y="-1.60" angle="90.00" type="human" speed="11.26" pos="42.75" lane="e0_0" slope="0.00"/>
        <vehicle id="ego" x="144.26" y="-1.60" angle="90.00" type="ego_type" speed="11.80" pos="144.26" lane="e0_0" slope="0.00"/>
    </timestep>
    <timestep time="59.00">
        <vehicle id="background.0" x="292.32" y="-1.60" angle="90.00" type="human" speed="8.43" pos="292.32" lane="e0_0" slope="0.00"/>
        <vehicle id="background.1" x="114.54" y="-1.60" angle="90.00" type="human" speed="13.56" pos="114.54" lane="e0_0" slope="0.00"/>
        <vehicle id="background.2" x="66.43" y="-1.60" angle="90.00" type="human" speed="12.18" pos="66.43" lane="e0_0" slope="0.00"/>
        <vehicle id="background.3" x="48.47" y="-1.60" angle="90.00" type="human" speed="11.44" pos="48.47" lane="e0_0" slope="0.00"/>
        <vehicle id="ego" x="150.16" y="-1.60" angle="90.00" type="ego_type" speed="11.80" pos="150.16" lane="e0_0" slope="0.00"/>
    </timestep>
    <timestep time="59.50">
        <vehicle id="background.0" x="295.46" y="-1.60" angle="90.00" type="human" speed="6.27" pos="295.46" lane="e0_0" slope="0.00"/>
        <vehicle id="background.1" x="121.37" y="-1.60" angle="90.00" type="human" speed="13.67" pos="121.37" lane="e0_0" slope="0.00"/>
        <vehicle id="background.2" x="72.60" y="-1.60" angle="90.00" type="human" speed="12.34" pos="72.60" lane="e0_0" slope="0.00"/>
        <vehicle id="background.3" x="54.18" y="-1.60" angle="90.00" type="human" speed="11.42" pos="54.18" lane="e0_0" slope="0.00"/>
        <vehicle id="background.4" x="5.10" y="-1.60" angle="90.00" type="human" speed="11.90" pos="5.10" lane="e0_0" slope="0.00"/>
        <vehicle id="ego" x="156.05" y="-1.60" angle="90.00" type="ego_type" speed="11.80" pos="156.05" lane="e0_0" slope="0.00"/>
    </timestep>
    <timestep time="60.00">
        <vehicle id="background.0" x="297.65" y="-1.60" angle="90.00" type="human" speed="4.38" pos="297.65" lane="e0_0" slope="0.00"/>
        <vehicle id="background.1" x="128.10" y="-1.60" angle="90.00" type="human" speed="13.45" pos="128.10" lane="e0_0" slope="0.00"/>
        <vehicle id="background.2" x="78.72" y="-1.60" angle="90.00" type="human" speed="12.23" pos="78.72" lane="e0_0" slope="0.00"/>
        <vehicle id="background.3" x="60.06" y="-1.60" angle="90.00" type="human" speed="11.75" pos="60.06" lane="e0_0" slope="0.00"/>
        <vehicle id="background.4" x="11.02" y="-1.60" angle="90.00" type="human" speed="11.84" pos="11.02" lane="e0_0" slope="0.00"/>
        <vehicle id="ego" x="161.95" y="-1.60" angle="90.00" type="ego_type" speed="11.80" pos="161.95" lane="e0_0" slope="0.00"/>
    </timestep>
    <timestep time="60.50">
        <vehicle id="background.0" x="298.78" y="-1.60" angle="90.00" type="human" speed="2.25" pos="298.78" lane="e0_0" slope="0.00"/>
        <vehicle id="background.1" x="134.87" y="-1.60" angle="90.00" type="human" speed="13.56" pos="134.87" lane="e0_0" slope="0.00"/>
        <vehicle id="background.2" x="84.72" y="-1.60" angle="90.00" type="human" speed="12.01" pos="84.72" lane="e0_0" slope="0.00"/>
        <vehicle id="background.3" x="65.86" y="-1.60" angle="90.00" type="human" speed="11.62" pos="65.86" lane="e0_0" slope="0.00"/>
        <vehicle id="background.4" x="16.89" y="-1.60" angle="90.00" type="human" speed="11.75" pos="16.89" lane="e0_0" slope="0.00"/>
        <vehicle id="ego" x="167.85" y="-1.60" angle="90.00" type="ego_type" speed="11.80" pos="167.85" lane="e0_0" slope="0.00"/>
    </timestep>
    <timestep time="61.00">
        <vehicle id="background.0" x="298.96" y="-1.60" angle="90.00" type="human" speed="0.37" pos="298.96" lane="e0_0" slope="0.00"/>
        <vehicle id="background.1" x="141.73" y="-1.60" angle="90.00" type="human" speed="13.70" pos="141.73" lane="e0_0" slope="0.00"/>
        <vehicle id="background.2" x="90.90" y="-1.60" angle="90.00" type="human" speed="12.35" pos="90.90" lane="e0_0" slope="0.00"/>
        <vehicle id="background.3" x="71.77" y="-1.60" angle="90.00" type="human" speed="11.81" pos="71.77" lane="e0_0" slope="0.00"/>
        <vehicle id="background.4" x="22.60" y="-1.60" angle="90.00" type="human" speed="11.41" pos="22.60" lane="e0_0" slope="0.00"/>
        <vehicle id="ego" x="173.75" y="-1.60" angle="90.00" type="ego_type" speed="11.80" pos="173.75" lane="e0_0" slope="0.00"/>
    </timestep>
    <timestep time="61.50">
        <vehicle id="background.0" x="298.99" y="-1.60" angle="90.00" type="human" speed="0.06" pos="298.99" lane="e0_0" slope="0.00"/>
        <vehicle id="background.1" x="148.45" y="-1.60" angle="90.00" type="human" speed="13.45" pos="148.45" lane="e0_0" slope="0.00"/>
        <vehicle id="background.2" x="96.98" y="-1.60" angle="90.00" type="human" speed="12.17" pos="96.98" lane="e0_0" slope="0.00"/>
        <vehicle id="background.3" x="77.63" y="-1.60" angle="90.00" type="human" speed="11.73" pos="77.63" lane="e0_0" slope="0.00"/>
        <vehicle id="background.4" x="28.44" y="-1.60" angle="90.00" type="human" speed="11.68" pos="28.44" lane="e0_0" slope="0.00"/>
        <vehicle id="ego" x="179.64" y="-1.60" angle="90.00" type="ego_type" speed="11.80" pos="179.64" lane="e0_0" slope="0.00"/>
    </timestep>
    <timestep time="62.00">
        <vehicle id="background.0" x="299.00" y="-1.60" angle="90.00" type="human" speed="0.01" pos="299.00" lane="e0_0" slope="0.00"/>
        <vehicle id="background.1" x="155.33" y="-1.60" angle="90.00" type="human" speed="13.76" pos="155.33" lane="e0_0" slope="0.00"/>
        <vehicle id="background.2" x="103.09" y="-1.60" angle="90.00" type="human" speed="12.21" pos="103.09" lane="e0_0" slope="0.00"/>
        <vehicle id="background.3" x="83.48" y="-1.60" angle="90.00" type="human" speed="11.68" pos="83.48" lane="e0_0" slope="0.00"/>
        <vehicle id="background.4" x="34.24" y="-1.60" angle="90.00" type="human" speed="11.61" pos="34.24" lane="e0_0" slope="0.00"/>
        <vehicle id="background.5" x="5.10" y="-1.60" angle="90.00" type="human" speed="13.89" pos="5.10" lane="e0_0" slope="0.00"/>
        <vehicle id="ego" x="185.54" y="-1.60" angle="90.00" type="ego_type" speed="11.80" pos="185.54" lane="e0_0" slope="0.00"/>
    </timestep>
    <timestep time="62.50">
        <vehicle id="background.0" x="299.00" y="-1.60" angle="90.00" type="human" speed="0.00" pos="299.00" lane="e0_0" slope="0.00"/>
        <vehicle id="background.1" x="162.26" y="-1.60" angle="90.00" type="human" speed="13.85" pos="162.26" lane="e0_0" slope="0.00"/>
        <vehicle id="background.2" x="109.24" y="-1.60" angle="90.00" type="human" speed="12.29" pos="109.24" lane="e0_0" slope="0.00"/>
        <vehicle id="background.3" x="89.50" y="-1.60" angle="90.00" type="human" speed="12.04" pos="89.50" lane="e0_0" slope="0.00"/>
        <vehicle id="background.4" x="40.02" y="-1.60" angle="90.00" type="human" speed="11.55" pos="40.02" lane="e0_0" slope="0.00"/>
        <vehicle id="background.5" x="11.86" y="-1.60" angle="90.00" type="human" speed="13.53" pos="11.86" lane="e0_0" slope="0.00"/>
        <vehicle id="ego" x="191.44" y="-1.60" angle="90.00" type="ego_type" speed="11.80" pos="191.44" lane="e0_0" slope="0.00"/>
    </timestep>
    <timestep time="63.00">
        <vehicle id="background.0" x="299.00" y="-1.60" angle="90.00" type="human" speed="0.00" pos="299.00" lane="e0_0" slope="0.00"/>
        <vehicle id="background.1" x="169.03" y="-1.60" angle="90.00" type="human" speed="13.54" pos="169.03" lane="e0_0" slope="0.00"/>
        <vehicle id="background.2" x="115.41" y="-1.60" angle="90.00" type="human" speed="12.35" pos="115.41" lane="e0_0" slope="0.00"/>
        <vehicle id="background.3" x="95.57" y="-1.60" angle="90.00" type="human" speed="12.15" pos="95.57" lane="e0_0" slope="0.00"/>
        <vehicle id="background.4" x="45.86" y="-1.60" angle="90.00" type="human" speed="11.67" pos="45.86" lane="e0_0" slope="0.00"/>
        <vehicle id="background.5" x="18.68" y="-1.60" angle="90.00" type="human" speed="13.63" pos="18.68" lane="e0_0" slope="0.00"/>
        <vehicle id="ego" x="197.34" y="-1.60" angle="90.00" type="ego_type" speed="11.80" pos="197.34" lane="e0_0" slope="0.00"/>
    </timestep>
    <timestep time="63.50">
        <vehicle id="background.0" x="299.00" y="-1.60" angle="90.00" type="human" speed="0.00" pos="299.00" lane="e0_0" slope="0.00"/>
        <vehicle id="background.1" x="175.94" y="-1.60" angle="90.00" type="human" speed="13.82" pos="175.94" lane="e0_0" slope="0.00"/>
        <vehicle id="background.2" x="121.57" y="-1.60" angle="90.00" type="human" speed="12.32" pos="121.57" lane="e0_0" slope="0.00"/>
        <vehicle id="background.3" x="101.62" y="-1.60" angle="90.00" type="human" speed="12.10" pos="101.62" lane="e0_0" slope="0.00"/>
        <vehicle id="background.4" x="51.71" y="-1.60" angle="90.00" type="human" speed="11.70" pos="51.71" lane="e0_0" slope="0.00"/>
        <vehicle id="background.5" x="25.50" y="-1.60" angle="90.00" type="human" speed="13.64" pos="25.50" lane="e0_0" slope="0.00"/>
        <vehicle id="background.6" x="5.10" y="-1.60" angle="90.00" type="human" speed="13.06" pos="5.10" lane="e0_0" slope="0.00"/>
        <vehicle id="ego" x="203.24" y="-1.60" angle="90.00" type="ego_type" speed="11.80" pos="203.24" lane="e0_0" slope="0.00"/>
    </timestep>
    <timestep time="64.00">
        <vehicle id="background.0" x="299.00" y="-1.60" angle="90.00" type="human" speed="0.00" pos="299.00" lane="e0_0" slope="0.00"/>
        <vehicle id="background.1" x="182.83" y="-1.60" angle="90.00" type="human" speed="13.78" pos="182.83" lane="e0_0" slope="0.00"/>