<?xml version="1.0" encoding="UTF-8"?>

<!-- generated on 2026-05-14 17:05:03 by Eclipse SUMO sumo Version 1.24.0
<sumoConfiguration xmlns:xsi="http://www.w3.org/2001/XMLSchema-instance" xsi:noNamespaceSchemaLocation="http://sumo.dlr.de/xsd/sumoConfiguration.xsd">

    <input>
        <net-file value="scenarios/simple_arterial/simple_arterial.net.xml"/>
        <route-files value="scenarios/simple_arterial/simple_arterial.rou.xml"/>
        <additional-files value="scenarios/simple_arterial/simple_arterial.tls.xml"/>
    </input>

    <output>
        <fcd-output value="runs/fcd_expert_default/episode_00066_seed_108.fcd.xml"/>
    </output>

    <time>
        <begin value="0"/>
        <end value="900"/>
        <step-length value="0.5"/>
    </time>

    <report>
        <no-warnings value="true"/>
    </report>

    <traci_server>
        <remote-port value="24542"/>
    </traci_server>

    <random_number>
        <seed value="108"/>
    </random_number>

</sumoConfiguration>
-->

<fcd-export xmlns:xsi="http://www.w3.org/2001/XMLSchema-instance" xsi:noNamespaceSchemaLocation="http://sumo.dlr.de/xsd/fcd_file.xsd">
    <timestep time="0.00"/>
    <timestep time="0.50"/>
    <timestep time="1.00"/>
    <timestep time="1.50"/>
    <timestep time="2.00"/>
    <timestep time="2.50"/>
    <timestep time="3.00"/>
    <timestep time="3.50"/>
    <timestep time="4.00"/>
    <timestep time="4.50"/>
    <timestep time="5.00"/>
    <timestep time="5.50"/>
    <timestep time="6.00"/>
    <timestep time="6.50"/>
    <timestep time="7.00"/>
    <timestep time="7.50"/>
    <timestep time="8.00"/>
    <timestep time="8.50"/>
    <timestep time="9.00"/>
    <timestep time="9.50"/>
    <timestep time="10.00"/>
    <timestep time="10.50"/>
    <timestep time="11.00"/>
    <timestep time="11.50"/>
    <timestep time="12.00"/>
    <timestep time="12.50"/>
    <timestep time="13.00"/>
    <timestep time="13.50"/>
    <timestep time="14.00"/>
    <timestep time="14.50"/>
    <timestep time="15.00"/>
    <timestep time="15.50">
        <vehicle id="background.0" x="5.10" y="-1.60" angle="90.00" type="human" speed="13.64" pos="5.10" lane="e0_0" slope="0.00"/>
    </timestep>
    <timestep time="16.00">
        <vehicle id="background.0" x="11.77" y="-1.60" angle="90.00" type="human" speed="13.33" pos="11.77" lane="e0_0" slope="0.00"/>
    </timestep>
    <timestep time="16.50">
        <vehicle id="background.0" x="18.43" y="-1.60" angle="90.00" type="human" speed="13.32" pos="18.43" lane="e0_0" slope="0.00"/>
    </timestep>
    <timestep time="17.00">
        <vehicle id="background.0" x="25.13" y="-1.60" angle="90.00" type="human" speed="13.39" pos="25.13" lane="e0_0" slope="0.00"/>
    </timestep>
    <timestep time="17.50">
        <vehicle id="background.0" x="31.82" y="-1.60" angle="90.00" type="human" speed="13.39" pos="31.82" lane="e0_0" slope="0.00"/>
    </timestep>
    <timestep time="18.00">
        <vehicle id="background.0" x="38.47" y="-1.60" angle="90.00" type="human" speed="13.29" pos="38.47" lane="e0_0" slope="0.00"/>
    </timestep>
    <timestep time="18.50">
        <vehicle id="background.0" x="45.16" y="-1.60" angle="90.00" type="human" speed="13.39" pos="45.16" lane="e0_0" slope="0.00"/>
    </timestep>
    <timestep time="19.00">
        <vehicle id="background.0" x="51.93" y="-1.60" angle="90.00" type="human" speed="13.54" pos="51.93" lane="e0_0" slope="0.00"/>
    </timestep>
    <timestep time="19.50">
        <vehicle id="background.0" x="58.64" y="-1.60" angle="90.00" type="human" speed="13.42" pos="58.64" lane="e0_0" slope="0.00"/>
    </timestep>
    <timestep time="20.00">
        <vehicle id="background.0" x="65.27" y="-1.60" angle="90.00" type="human" speed="13.25" pos="65.27" lane="e0_0" slope="0.00"/>
    </timestep>
    <timestep time="20.50">
        <vehicle id="background.0" x="72.07" y="-1.60" angle="90.00" type="human" speed="13.60" pos="72.07" lane="e0_0" slope="0.00"/>
    </timestep>
    <timestep time="21.00">
        <vehicle id="background.0" x="78.71" y="-1.60" angle="90.00" type="human" speed="13.29" pos="78.71" lane="e0_0" slope="0.00"/>
    </timestep>
    <timestep time="21.50">
        <vehicle id="background.0" x="85.45" y="-1.60" angle="90.00" type="human" speed="13.47" pos="85.45" lane="e0_0" slope="0.00"/>
    </timestep>
    <timestep time="22.00">
        <vehicle id="background.0" x="92.17" y="-1.60" angle="90.00" type="human" speed="13.46" pos="92.17" lane="e0_0" slope="0.00"/>
    </timestep>
    <timestep time="22.50">
        <vehicle id="background.0" x="98.75" y="-1.60" angle="90.00" type="human" speed="13.15" pos="98.75" lane="e0_0" slope="0.00"/>
    </timestep>
    <timestep time="23.00">
        <vehicle id="background.0" x="105.32" y="-1.60" angle="90.00" type="human" speed="13.15" pos="105.32" lane="e0_0" slope="0.00"/>
    </timestep>
    <timestep time="23.50">
        <vehicle id="background.0" x="112.11" y="-1.60" angle="90.00" type="human" speed="13.57" pos="112.11" lane="e0_0" slope="0.00"/>
    </timestep>
    <timestep time="24.00">
        <vehicle id="background.0" x="118.91" y="-1.60" angle="90.00" type="human" speed="13.59" pos="118.91" lane="e0_0" slope="0.00"/>
    </timestep>
    <timestep time="24.50">
        <vehicle id="background.0" x="125.66" y="-1.60" angle="90.00" type="human" speed="13.50" pos="125.66" lane="e0_0" slope="0.00"/>
    </timestep>
    <timestep time="25.00">
        <vehicle id="background.0" x="132.37" y="-1.60" angle="90.00" type="human" speed="13.43" pos="132.37" lane="e0_0" slope="0.00"/>
    </timestep>
    <timestep time="25.50">
        <vehicle id="background.0" x="139.05" y="-1.60" angle="90.00" type="human" speed="13.36" pos="139.05" lane="e0_0" slope="0.00"/>
    </timestep>
    <timestep time="26.00">
        <vehicle id="background.0" x="145.86" y="-1.60" angle="90.00" type="human" speed="13.61" pos="145.86" lane="e0_0" slope="0.00"/>
    </timestep>
    <timestep time="26.50">
        <vehicle id="background.0" x="152.67" y="-1.60" angle="90.00" type="human" speed="13.64" pos="152.67" lane="e0_0" slope="0.00"/>
    </timestep>
    <timestep time="27.00">
        <vehicle id="background.0" x="159.42" y="-1.60" angle="90.00" type="human" speed="13.49" pos="159.42" lane="e0_0" slope="0.00"/>
    </timestep>
    <timestep time="27.50">
        <vehicle id="background.0" x="166.03" y="-1.60" angle="90.00" type="human" speed="13.22" pos="166.03" lane="e0_0" slope="0.00"/>
    </timestep>
    <timestep time="28.00">
        <vehicle id="background.0" x="172.60" y="-1.60" angle="90.00" type="human" speed="13.14" pos="172.60" lane="e0_0" slope="0.00"/>
    </timestep>
    <timestep time="28.50">
        <vehicle id="background.0" x="179.24" y="-1.60" angle="90.00" type="human" speed="13.27" pos="179.24" lane="e0_0" slope="0.00"/>
    </timestep>
    <timestep time="29.00">
        <vehicle id="background.0" x="185.83" y="-1.60" angle="90.00" type="human" speed="13.18" pos="185.83" lane="e0_0" slope="0.00"/>
    </timestep>
    <timestep time="29.50">
        <vehicle id="background.0" x="192.63" y="-1.60" angle="90.00" type="human" speed="13.61" pos="192.63" lane="e0_0" slope="0.00"/>
    </timestep>
    <timestep time="30.00">
        <vehicle id="background.0" x="199.34" y="-1.60" angle="90.00" type="human" speed="13.41" pos="199.34" lane="e0_0" slope="0.00"/>
        <vehicle id="background.1" x="5.10" y="-1.60" angle="90.00" type="human" speed="13.15" pos="5.10" lane="e0_0" slope="0.00"/>
    </timestep>
    <timestep time="30.50">
        <vehicle id="background.0" x="206.12" y="-1.60" angle="90.00" type="human" speed="13.56" pos="206.12" lane="e0_0" slope="0.00"/>
        <vehicle id="background.1" x="11.45" y="-1.60" angle="90.00" type="human" speed="12.69" pos="11.45" lane="e0_0" slope="0.00"/>
    </timestep>
    <timestep time="31.00">
        <vehicle id="background.0" x="212.85" y="-1.60" angle="90.00" type="human" speed="13.45" pos="212.85" lane="e0_0" slope="0.00"/>
        <vehicle id="background.1" x="17.95" y="-1.60" angle="90.00" type="human" speed="13.00" pos="17.95" lane="e0_0" slope="0.00"/>
    </timestep>
    <timestep time="31.50">
        <vehicle id="background.0" x="219.47" y="-1.60" angle="90.00" type="human" speed="13.25" pos="219.47" lane="e0_0" slope="0.00"/>
        <vehicle id="background.1" x="24.38" y="-1.60" angle="90.00" type="human" speed="12.87" pos="24.38" lane="e0_0" slope="0.00"/>
    </timestep>
    <timestep time="32.00">
        <vehicle id="background.0" x="226.26" y="-1.60" angle="90.00" type="human" speed="13.57" pos="226.26" lane="e0_0" slope="0.00"/>
        <vehicle id="background.1" x="30.84" y="-1.60" angle="90.00" type="human" speed="12.92" pos="30.84" lane="e0_0" slope="0.00"/>
    </timestep>
    <timestep time="32.50">
        <vehicle id="background.0" x="232.97" y="-1.60" angle="90.00" type="human" speed="13.42" pos="232.97" lane="e0_0" slope="0.00"/>
        <vehicle id="background.1" x="37.41" y="-1.60" angle="90.00" type="human" speed="13.14" pos="37.41" lane="e0_0" slope="0.00"/>
    </timestep>
    <timestep time="33.00">
        <vehicle id="background.0" x="239.70" y="-1.60" angle="90.00" type="human" speed="13.45" pos="239.70" lane="e0_0" slope="0.00"/>
        <vehicle id="background.1" x="43.75" y="-1.60" angle="90.00" type="human" speed="12.68" pos="43.75" lane="e0_0" slope="0.00"/>
    </timestep>
    <timestep time="33.50">
        <vehicle id="background.0" x="246.40" y="-1.60" angle="90.00" type="human" speed="13.40" pos="246.40" lane="e0_0" slope="0.00"/>
        <vehicle id="background.1" x="50.25" y="-1.60" angle="90.00" type="human" speed="12.99" pos="50.25" lane="e0_0" slope="0.00"/>
    </timestep>
    <timestep time="34.00">
        <vehicle id="background.0" x="253.17" y="-1.60" angle="90.00" type="human" speed="13.54" pos="253.17" lane="e0_0" slope="0.00"/>
        <vehicle id="background.1" x="56.61" y="-1.60" angle="90.00" type="human" speed="12.73" pos="56.61" lane="e0_0" slope="0.00"/>
    </timestep>
    <timestep time="34.50">
        <vehicle id="background.0" x="259.91" y="-1.60" angle="90.00" type="human" speed="13.49" pos="259.91" lane="e0_0" slope="0.00"/>
        <vehicle id="background.1" x="63.18" y="-1.60" angle="90.00" type="human" speed="13.14" pos="63.18" lane="e0_0" slope="0.00"/>
    </timestep>
    <timestep time="35.00">
        <vehicle id="background.0" x="266.52" y="-1.60" angle="90.00" type="human" speed="13.22" pos="266.52" lane="e0_0" slope="0.00"/>
        <vehicle id="background.1" x="69.61" y="-1.60" angle="90.00" type="human" speed="12.86" pos="69.61" lane="e0_0" slope="0.00"/>
    </timestep>
    <timestep time="35.50">
        <vehicle id="background.0" x="273.13" y="-1.60" angle="90.00" type="human" speed="13.22" pos="273.13" lane="e0_0" slope="0.00"/>
        <vehicle id="background.1" x="76.03" y="-1.60" angle="90.00" type="human" speed="12.85" pos="76.03" lane="e0_0" slope="0.00"/>
    </timestep>
    <timestep time="36.00">
        <vehicle id="background.0" x="279.75" y="-1.60" angle="90.00" type="human" speed="13.24" pos="279.75" lane="e0_0" slope="0.00"/>
        <vehicle id="background.1" x="82.40" y="-1.60" angle="90.00" type="human" speed="12.73" pos="82.40" lane="e0_0" slope="0.00"/>
    </timestep>
    <timestep time="36.50">
        <vehicle id="background.0" x="286.34" y="-1.60" angle="90.00" type="human" speed="13.17" pos="286.34" lane="e0_0" slope="0.00"/>
        <vehicle id="background.1" x="88.89" y="-1.60" angle="90.00" type="human" speed="12.99" pos="88.89" lane="e0_0" slope="0.00"/>
    </timestep>
    <timestep time="37.00">
        <vehicle id="background.0" x="293.10" y="-1.60" angle="90.00" type="human" speed="13.53" pos="293.10" lane="e0_0" slope="0.00"/>
        <vehicle id="background.1" x="95.23" y="-1.60" angle="90.00" type="human" speed="12.68" pos="95.23" lane="e0_0" slope="0.00"/>
    </timestep>
    <timestep time="37.50">
        <vehicle id="background.0" x="299.73" y="-1.60" angle="90.00" type="human" speed="13.26" pos="299.73" lane="e0_0" slope="0.00"/>
        <vehicle id="background.1" x="101.62" y="-1.60" angle="90.00" type="human" speed="12.78" pos="101.62" lane="e0_0" slope="0.00"/>
    </timestep>
    <timestep time="38.00">
        <vehicle id="background.0" x="306.23" y="-1.60" angle="90.00" type="human" speed="13.19" pos="6.23" lane="e1_0" slope="0.00"/>
        <vehicle id="background.1" x="107.97" y="-1.60" angle="90.00" type="human" speed="12.70" pos="107.97" lane="e0_0" slope="0.00"/>
    </timestep>
    <timestep time="38.50">
        <vehicle id="background.0" x="313.02" y="-1.60" angle="90.00" type="human" speed="13.58" pos="13.02" lane="e1_0" slope="0.00"/>
        <vehicle id="background.1" x="114.45" y="-1.60" angle="90.00" type="human" speed="12.97" pos="114.45" lane="e0_0" slope="0.00"/>
    </timestep>
    <timestep time="39.00">
        <vehicle id="background.0" x="319.63" y="-1.60" angle="90.00" type="human" speed="13.23" pos="19.63" lane="e1_0" slope="0.00"/>
        <vehicle id="background.1" x="120.81" y="-1.60" angle="90.00" type="human" speed="12.72" pos="120.81" lane="e0_0" slope="0.00"/>
    </timestep>
    <timestep time="39.50">
        <vehicle id="background.0" x="326.29" y="-1.60" angle="90.00" type="human" speed="13.31" pos="26.29" lane="e1_0" slope="0.00"/>
        <vehicle id="background.1" x="127.23" y="-1.60" angle="90.00" type="human" speed="12.84" pos="127.23" lane="e0_0" slope="0.00"/>
    </timestep>
    <timestep time="40.00">
        <vehicle id="background.0" x="333.03" y="-1.60" angle="90.00" type="human" speed="13.48" pos="33.03" lane="e1_0" slope="0.00"/>
        <vehicle id="background.1" x="133.58" y="-1.60" angle="90.00" type="human" speed="12.70" pos="133.58" lane="e0_0" slope="0.00"/>
    </timestep>
    <timestep time="40.50">
        <vehicle id="background.0" x="339.75" y="-1.60" angle="90.00" type="human" speed="13.45" pos="39.75" lane="e1_0" slope="0.00"/>
        <vehicle id="background.1" x="140.04" y="-1.60" angle="90.00" type="human" speed="12.90" pos="140.04" lane="e0_0" slope="0.00"/>
    </timestep>
    <timestep time="41.00">
        <vehicle id="background.0" x="346.33" y="-1.60" angle="90.00" type="human" speed="13.16" pos="46.33" lane="e1_0" slope="0.00"/>
        <vehicle id="background.1" x="146.43" y="-1.60" angle="90.00" type="human" speed="12.79" pos="146.43" lane="e0_0" slope="0.00"/>
    </timestep>
    <timestep time="41.50">
        <vehicle id="background.1" x="152.86" y="-1.60" angle="90.00" type="human" speed="12.86" pos="152.86" lane="e0_0" slope="0.00"/>
    </timestep>
    <timestep time="42.00">
        <vehicle id="background.1" x="159.30" y="-1.60" angle="90.00" type="human" speed="12.89" pos="159.30" lane="e0_0" slope="0.00"/>
    </timestep>
    <timestep time="42.50">
        <vehicle id="background.1" x="165.63" y="-1.60" angle="90.00" type="human" speed="12.66" pos="165.63" lane="e0_0" slope="0.00"/>
    </timestep>
    <timestep time="43.00">
        <vehicle id="background.1" x="172.02" y="-1.60" angle="90.00" type="human" speed="12.77" pos="172.02" lane="e0_0" slope="0.00"/>
    </timestep>
    <timestep time="43.50">
        <vehicle id="background.1" x="178.47" y="-1.60" angle="90.00" type="human" speed="12.91" pos="178.47" lane="e0_0" slope="0.00"/>
    </timestep>
    <timestep time="44.00">
        <vehicle id="background.1" x="184.99" y="-1.60" angle="90.00" type="human" speed="13.04" pos="184.99" lane="e0_0" slope="0.00"/>
    </timestep>
    <timestep time="44.50">
        <vehicle id="background.1" x="191.43" y="-1.60" angle="90.00" type="human" speed="12.87" pos="191.43" lane="e0_0" slope="0.00"/>
    </timestep>
    <timestep time="45.00">
        <vehicle id="background.1" x="197.81" y="-1.60" angle="90.00" type="human" speed="12.78" pos="197.81" lane="e0_0" slope="0.00"/>
    </timestep>
    <timestep time="45.50">
        <vehicle id="background.1" x="204.14" y="-1.60" angle="90.00" type="human" speed="12.65" pos="204.14" lane="e0_0" slope="0.00"/>
    </timestep>
    <timestep time="46.00">
        <vehicle id="background.1" x="210.52" y="-1.60" angle="90.00" type="human" speed="12.77" pos="210.52" lane="e0_0" slope="0.00"/>
    </timestep>
    <timestep time="46.50">
        <vehicle id="background.1" x="217.06" y="-1.60" angle="90.00" type="human" speed="13.09" pos="217.06" lane="e0_0" slope="0.00"/>
    </timestep>
    <timestep time="47.00">
        <vehicle id="background.1" x="223.55" y="-1.60" angle="90.00" type="human" speed="12.96" pos="223.55" lane="e0_0" slope="0.00"/>
    </timestep>
    <timestep time="47.50">
        <vehicle id="background.1" x="230.02" y="-1.60" angle="90.00" type="human" speed="12.95" pos="230.02" lane="e0_0" slope="0.00"/>
    </timestep>
    <timestep time="48.00">
        <vehicle id="background.1" x="236.50" y="-1.60" angle="90.00" type="human" speed="12.97" pos="236.50" lane="e0_0" slope="0.00"/>
    </timestep>
    <timestep time="48.50">
        <vehicle id="background.1" x="242.92" y="-1.60" angle="90.00" type="human" speed="12.83" pos="242.92" lane="e0_0" slope="0.00"/>
    </timestep>
    <timestep time="49.00">
        <vehicle id="background.1" x="249.29" y="-1.60" angle="90.00" type="human" speed="12.74" pos="249.29" lane="e0_0" slope="0.00"/>
        <vehicle id="background.2" x="5.10" y="-1.60" angle="90.00" type="human" speed="13.89" pos="5.10" lane="e0_0" slope="0.00"/>
    </timestep>
    <timestep time="49.50">
        <vehicle id="background.1" x="255.86" y="-1.60" angle="90.00" type="human" speed="13.14" pos="255.86" lane="e0_0" slope="0.00"/>
        <vehicle id="background.2" x="12.01" y="-1.60" angle="90.00" type="human" speed="13.82" pos="12.01" lane="e0_0" slope="0.00"/>
    </timestep>
    <timestep time="50.00">
        <vehicle id="background.1" x="262.24" y="-1.60" angle="90.00" type="human" speed="12.77" pos="262.24" lane="e0_0" slope="0.00"/>
        <vehicle id="background.2" x="18.80" y="-1.60" angle="90.00" type="human" speed="13.58" pos="18.80" lane="e0_0" slope="0.00"/>
    </timestep>
    <timestep time="50.50">
        <vehicle id="background.1" x="268.80" y="-1.60" angle="90.00" type="human" speed="13.12" pos="268.80" lane="e0_0" slope="0.00"/>
        <vehicle id="background.2" x="25.51" y="-1.60" angle="90.00" type="human" speed="13.43" pos="25.51" lane="e0_0" slope="0.00"/>
    </timestep>
    <timestep time="51.00">
        <vehicle id="background.1" x="275.32" y="-1.60" angle="90.00" type="human" speed="13.02" pos="275.32" lane="e0_0" slope="0.00"/>
        <vehicle id="background.2" x="32.39" y="-1.60" angle="90.00" type="human" speed="13.75" pos="32.39" lane="e0_0" slope="0.00"/>
    </timestep>
    <timestep time="51.50">
        <vehicle id="background.1" x="281.75" y="-1.60" angle="90.00" type="human" speed="12.87" pos="281.75" lane="e0_0" slope="0.00"/>
        <vehicle id="background.2" x="39.08" y="-1.60" angle="90.00" type="human" speed="13.40" pos="39.08" lane="e0_0" slope="0.00"/>
    </timestep>
    <timestep time="52.00">
        <vehicle id="background.1" x="287.34" y="-1.60" angle="90.00" type="human" speed="11.19" pos="287.34" lane="e0_0" slope="0.00"/>
        <vehicle id="background.2" x="46.00" y="-1.60" angle="90.00" type="human" speed="13.84" pos="46.00" lane="e0_0" slope="0.00"/>
    </timestep>
    <timestep time="52.50">
        <vehicle id="background.1" x="291.81" y="-1.60" angle="90.00" type="human" speed="8.94" pos="291.81" lane="e0_0" slope="0.00"/>
        <vehicle id="background.2" x="52.77" y="-1.60" angle="90.00" type="human" speed="13.53" pos="52.77" lane="e0_0" slope="0.00"/>
    </timestep>
    <timestep time="53.00">
        <vehicle id="background.1" x="295.28" y="-1.60" angle="90.00" type="human" speed="6.94" pos="295.28" lane="e0_0" slope="0.00"/>
        <vehicle id="background.2" x="59.48" y="-1.60" angle="90.00" type="human" speed="13.42" pos="59.48" lane="e0_0" slope="0.00"/>
    </timestep>
    <timestep time="53.50">
        <vehicle id="background.1" x="297.63" y="-1.60" angle="90.00" type="human" speed="4.69" pos="297.63" lane="e0_0" slope="0.00"/>
        <vehicle id="background.2" x="66.26" y="-1.60" angle="90.00" type="human" speed="13.56" pos="66.26" lane="e0_0" slope="0.00"/>
    </timestep>
    <timestep time="54.00">
        <vehicle id="background.1" x="298.85" y="-1.60" angle="90.00" type="human" speed="2.44" pos="298.85" lane="e0_0" slope="0.00"/>
        <vehicle id="background.2" x="73.18" y="-1.60" angle="90.00" type="human" speed="13.84" pos="73.18" lane="e0_0" slope="0.00"/>
    </timestep>
    <timestep time="54.50">
        <vehicle id="background.1" x="298.97" y="-1.60" angle="90.00" type="human" speed="0.25" pos="298.97" lane="e0_0" slope="0.00"/>
        <vehicle id="background.2" x="79.88" y="-1.60" angle="90.00" type="human" speed="13.40" pos="79.88" lane="e0_0" slope="0.00"/>
    </timestep>
    <timestep time="55.00">
        <vehicle id="background.1" x="299.00" y="-1.60" angle="90.00" type="human" speed="0.05" pos="299.00" lane="e0_0" slope="0.00"/>
        <vehicle id="background.2" x="86.69" y="-1.60" angle="90.00" type="human" speed="13.63" pos="86.69" lane="e0_0" slope="0.00"/>
    </timestep>
    <timestep time="55.50">
        <vehicle id="background.1" x="299.00" y="-1.60" angle="90.00" type="human" speed="0.00" pos="299.00" lane="e0_0" slope="0.00"/>
        <vehicle id="background.2" x="93.60" y="-1.60" angle="90.00" type="human" speed="13.81" pos="93.60" lane="e0_0" slope="0.00"/>
    </timestep>
    <timestep time="56.00">
        <vehicle id="background.1" x="299.00" y="-1.60" angle="90.00" type="human" speed="0.00" pos="299.00" lane="e0_0" slope="0.00"/>
        <vehicle id="background.2" x="100.42" y="-1.60" angle="90.00" type="human" speed="13.63" pos="100.42" lane="e0_0" slope="0.00"/>
    </timestep>
    <timestep time="56.50">
        <vehicle id="background.1" x="299.00" y="-1.60" angle="90.00" type="human" speed="0.00" pos="299.00" lane="e0_0" slope="0.00"/>
        <vehicle id="background.2" x="107.23" y="-1.60" angle="90.00" type="human" speed="13.62" pos="107.23" lane="e0_0" slope="0.00"/>
    </timestep>
    <timestep time="57.00">
        <vehicle id="background.1" x="299.00" y="-1.60" angle="90.00" type="human" speed="0.00" pos="299.00" lane="e0_0" slope="0.00"/>
        <vehicle id="background.2" x="114.17" y="-1.60" angle="90.00" type="human" speed="13.89" pos="114.17" lane="e0_0" slope="0.00"/>
    </timestep>
    <timestep time="57.50">
        <vehicle id="background.1" x="299.00" y="-1.60" angle="90.00" type="human" speed="0.00" pos="299.00" lane="e0_0" slope="0.00"/>
        <vehicle id="background.2" x="121.04" y="-1.60" angle="90.00" type="human" speed="13.73" pos="121.04" lane="e0_0" slope="0.00"/>
    </timestep>
    <timestep time="58.00">
        <vehicle id="background.1" x="299.00" y="-1.60" angle="90.00" type="human" speed="0.00" pos="299.00" lane="e0_0" slope="0.00"/>
        <vehicle id="background.2" x="127.97" y="-1.60" angle="90.00" type="human" speed="13.85" pos="127.97" lane="e0_0" slope="0.00"/>
    </timestep>
    <timestep time="58.50">
        <vehicle id="background.1" x="299.00" y="-1.60" angle="90.00" type="human" speed="0.00" pos="299.00" lane="e0_0" slope="0.00"/>
        <vehicle id="background.2" x="134.81" y="-1.60" angle="90.00" type="human" speed="13.70" pos="134.81" lane="e0_0" slope="0.00"/>
    </timestep>
    <timestep time="59.00">
        <vehicle id="background.1" x="299.00" y="-1.60" angle="90.00" type="human" speed="0.00" pos="299.00" lane="e0_0" slope="0.00"/>
        <vehicle id="background.2" x="141.61" y="-1.60" angle="90.00" type="human" speed="13.59" pos="141.61" lane="e0_0" slope="0.00"/>
    </timestep>
    <timestep time="59.50">
        <vehicle id="background.1" x="299.00" y="-1.60" angle="90.00" type="human" speed="0.00" pos="299.00" lane="e0_0" slope="0.00"/>
        <vehicle id="background.2" x="148.36" y="-1.60" angle="90.00" type="human" speed="13.50" pos="148.36" lane="e0_0" slope="0.00"/>
    </timestep>
    <timestep time="60.00">
        <vehicle id="background.1" x="299.00" y="-1.60" angle="90.00" type="human" speed="0.00" pos="299.00" lane="e0_0" slope="0.00"/>
        <vehicle id="background.2" x="155.15" y="-1.60" angle="90.00" type="human" speed="13.58" pos="155.15" lane="e0_0" slope="0.00"/>
    </timestep>
    <timestep time="60.50">
        <vehicle id="background.1" x="299.00" y="-1.60" angle="90.00" type="human" speed="0.00" pos="299.00" lane="e0_0" slope="0.00"/>
        <vehicle id="background.2" x="162.00" y="-1.60" angle="90.00" type="human" speed="13.69" pos="162.00" lane="e0_0" slope="0.00"/>
    </timestep>
    <timestep time="61.00">
        <vehicle id="background.1" x="299.00" y="-1.60" angle="90.00" type="human" speed="0.00" pos="299.00" lane="e0_0" slope="0.00"/>
        <vehicle id="background.2" x="168.72" y="-1.60" angle="90.00" type="human" speed="13.45" pos="168.72" lane="e0_0" slope="0.00"/>
    </timestep>
    <timestep time="61.50">
        <vehicle id="background.1" x="299.00" y="-1.60" angle="90.00" type="human" speed="0.00" pos="299.00" lane="e0_0" slope="0.00"/>
        <vehicle id="background.2" x="175.44" y="-1.60" angle="90.00" type="human" speed="13.43" pos="175.44" lane="e0_0" slope="0.00"/>
    </timestep>
    <timestep time="62.00">
        <vehicle id="background.1" x="299.00" y="-1.60" angle="90.00" type="human" speed="0.00" pos="299.00" lane="e0_0" slope="0.00"/>
        <vehicle id="background.2" x="182.31" y="-1.60" angle="90.00" type="human" speed="13.75" pos="182.31" lane="e0_0" slope="0.00"/>
    </timestep>
    <timestep time="62.50">
        <vehicle id="background.1" x="299.00" y="-1.60" angle="90.00" type="human" speed="0.00" pos="299.00" lane="e0_0" slope="0.00"/>
        <vehicle id="background.2" x="189.05" y="-1.60" angle="90.00" type="human" speed="13.48" pos="189.05" lane="e0_0" slope="0.00"/>
        <vehicle id="background.3" x="5.10" y="-1.60" angle="90.00" type="human" speed="13.44" pos="5.10" lane="e0_0" slope="0.00"/>
    </timestep>
    <timestep time="63.00">
        <vehicle id="background.1" x="299.00" y="-1.60" angle="90.00" type="human" speed="0.00" pos="299.00" lane="e0_0" slope="0.00"/>
        <vehicle id="background.2" x="195.95" y="-1.60" angle="90.00" type="human" speed="13.81" pos="195.95" lane="e0_0" slope="0.00"/>
        <vehicle id="background.3" x="11.58" y="-1.60" angle="90.00" type="human" speed="12.97" pos="11.58" lane="e0_0" slope="0.00"/>
    </timestep>
    <timestep time="63.50">
        <vehicle id="background.1" x="299.00" y="-1.60" angle="90.00" type="human" speed="0.00" pos="299.00" lane="e0_0" slope="0.00"/>
        <vehicle id="background.2" x="202.79" y="-1.60" angle="90.00" type="human" speed="13.66" pos="202.79" lane="e0_0" slope="0.00"/>
        <vehicle id="background.3" x="18.12" y="-1.60" angle="90.00" type="human" speed="13.07" pos="18.12" lane="e0_0" slope="0.00"/>
    </timestep>
    <timestep time="64.00">
        <vehicle id="background.1" x="299.00" y="-1.60" angle="90.00" type="human" speed="0.00" pos="299.00" lane="e0_0" slope="0.00"/>
        <vehicle id="background.2" x="209.62" y="-1.60" angle="90.00" type="human" speed="13.67" pos="209.62" lane="e0_0" slope="0.00"/>
        <vehicle id="background.3" x="24.82" y="-1.60" angle="90.00" type="human" speed="13.41" pos="24.82" lane="e0_0" slope="0.00"/>
    </timestep>
    <timestep time="64.50">
        <vehicle id="background.1" x="299.00" y="-1.60" angle="90.00" type="human" speed="0.00" pos="299.00" lane="e0_0" slope="0.00"/>
        <vehicle id="background.2" x="216.55" y="-1.60" angle="90.00" type="human" speed="13.86" pos="216.55" lane="e0_0" slope="0.00"/>
        <vehicle id="background.3" x="31.30" y="-1.60" angle="90.00" type="human" speed="12.95" pos="31.30" lane="e0_0" slope="0.00"/>
    </timestep>
    <timestep time="65.00">
        <vehicle id="background.1" x="299.00" y="-1.60" angle="90.00" type="human" speed="0.00" pos="299.00" lane="e0_0" slope="0.00"/>
        <vehicle id="background.2" x="223.42" y="-1.60" angle="90.00" type="human" speed="13.73" pos="223.42" lane="e0_0" slope="0.00"/>
        <vehicle id="background.3" x="37.93" y="-1.60" angle="90.00" type="human" speed="13.28" pos="37.93" lane="e0_0" slope="0.00"/>
    </timestep>
    <timestep time="65.50">
        <vehicle id="background.1" x="299.00" y="-1.60" angle="90.00" type="human" speed="0.00" pos="299.00" lane="e0_0" slope="0.00"/>
        <vehicle id="background.2" x="230.13" y="-1.60" angle="90.00" type="human" speed="13.43" pos="230.13" lane="e0_0" slope="0.00"/>
        <vehicle id="background.3" x="44.48" y="-1.60" angle="90.00" type="human" speed="13.09" pos="44.48" lane="e0_0" slope="0.00"/>
    </timestep>
    <timestep time="66.00">
        <vehicle id="background.1" x="299.00" y="-1.60" angle="90.00" type="human" speed="0.00" pos="299.00" lane="e0_0" slope="0.00"/>
        <vehicle id="background.2" x="237.04" y="-1.60" angle="90.00" type="human" speed="13.81" pos="237.04" lane="e0_0" slope="0.00"/>
        <vehicle id="background.3" x="51.15" y="-1.60" angle="90.00" type="human" speed="13.34" pos="51.15" lane="e0_0" slope="0.00"/>
    </timestep>
    <timestep time="66.50">
        <vehicle id="background.1" x="299.00" y="-1.60" angle="90.00" type="human" speed="0.00" pos="299.00" lane="e0_0" slope="0.00"/>
        <vehicle id="background.2" x="243.79" y="-1.60" angle="90.00" type="human" speed="13.50" pos="243.79" lane="e0_0" slope="0.00"/>
        <vehicle id="background.3" x="57.74" y="-1.60" angle="90.00" type="human" speed="13.17" pos="57.74" lane="e0_0" slope="0.00"/>
    </timestep>
    <timestep time="67.00">
        <vehicle id="background.1" x="299.00" y="-1.60" angle="90.00" type="human" speed="0.00" pos="299.00" lane="e0_0" slope="0.00"/>