<?xml version="1.0" encoding="UTF-8"?>

<!-- generated on 2026-05-15 22:31:29 by Eclipse SUMO sumo Version 1.24.0
<sumoConfiguration xmlns:xsi="http://www.w3.org/2001/XMLSchema-instance" xsi:noNamespaceSchemaLocation="http://sumo.dlr.de/xsd/sumoConfiguration.xsd">

    <input>
        <net-file value="scenarios/simple_arterial/simple_arterial.net.xml"/>
        <route-files value="scenarios/simple_arterial/simple_arterial.rou.xml"/>
        <additional-files value="scenarios/simple_arterial/simple_arterial.tls.xml"/>
    </input>

    <output>
        <fcd-output value="runs/fcd_expert_default/episode_00002_seed_44.fcd.xml"/>
    </output>

    <time>
        <begin value="0"/>
        <end value="900"/>
        <step-length value="0.5"/>
    </time>

    <report>
        <no-warnings value="true"/>
    </report>

    <traci_server>
        <remote-port value="39857"/>
    </traci_server>

    <random_number>
        <seed value="44"/>
    </random_number>

</sumoConfiguration>
-->

<fcd-export xmlns:xsi="http://www.w3.org/2001/XMLSchema-instance" xsi:noNamespaceSchemaLocation="http://sumo.dlr.de/xsd/fcd_file.xsd">
    <timestep time="0.00"/>
    <timestep time="0.50"/>
    <timestep time="1.00"/>
    <timestep time="1.50"/>
    <timestep time="2.00"/>
    <timestep time="2.50"/>
    <timestep time="3.00"/>
    <timestep time="3.50"/>
    <timestep time="4.00"/>
    <timestep time="4.50"/>
    <timestep time="5.00"/>
    <timestep time="5.50"/>
    <timestep time="6.00"/>
    <timestep time="6.50"/>
    <timestep time="7.00"/>
    <timestep time="7.50"/>
    <timestep time="8.00"/>
    <timestep time="8.50"/>
    <timestep time="9.00"/>
    <timestep time="9.50"/>
    <timestep time="10.00"/>
    <timestep time="10.50"/>
    <timestep time="11.00"/>
    <timestep time="11.50">
        <vehicle id="ego" x="5.10" y="-1.60" angle="90.00" type="ego_type" speed="3.36" pos="5.10" lane="e0_0" slope="0.00"/>
    </timestep>
    <timestep time="12.00">
        <vehicle id="ego" x="7.28" y="-1.60" angle="90.00" type="ego_type" speed="4.36" pos="7.28" lane="e0_0" slope="0.00"/>
    </timestep>
    <timestep time="12.50">
        <vehicle id="ego" x="9.96" y="-1.60" angle="90.00" type="ego_type" speed="5.36" pos="9.96" lane="e0_0" slope="0.00"/>
    </timestep>
    <timestep time="13.00">
        <vehicle id="ego" x="13.13" y="-1.60" angle="90.00" type="ego_type" speed="6.36" pos="13.13" lane="e0_0" slope="0.00"/>
    </timestep>
    <timestep time="13.50">
        <vehicle id="ego" x="16.81" y="-1.60" angle="90.00" type="ego_type" speed="7.36" pos="16.81" lane="e0_0" slope="0.00"/>
    </timestep>
    <timestep time="14.00">
        <vehicle id="ego" x="20.99" y="-1.60" angle="90.00" type="ego_type" speed="8.36" pos="20.99" lane="e0_0" slope="0.00"/>
    </timestep>
    <timestep time="14.50">
        <vehicle id="ego" x="25.67" y="-1.60" angle="90.00" type="ego_type" speed="9.36" pos="25.67" lane="e0_0" slope="0.00"/>
    </timestep>
    <timestep time="15.00">
        <vehicle id="ego" x="30.84" y="-1.60" angle="90.00" type="ego_type" speed="10.36" pos="30.84" lane="e0_0" slope="0.00"/>
    </timestep>
    <timestep time="15.50">
        <vehicle id="ego" x="36.52" y="-1.60" angle="90.00" type="ego_type" speed="11.36" pos="36.52" lane="e0_0" slope="0.00"/>
    </timestep>
    <timestep time="16.00">
        <vehicle id="ego" x="42.70" y="-1.60" angle="90.00" type="ego_type" speed="12.36" pos="42.70" lane="e0_0" slope="0.00"/>
    </timestep>
    <timestep time="16.50">
        <vehicle id="ego" x="49.38" y="-1.60" angle="90.00" type="ego_type" speed="13.36" pos="49.38" lane="e0_0" slope="0.00"/>
    </timestep>
    <timestep time="17.00">
        <vehicle id="ego" x="56.32" y="-1.60" angle="90.00" type="ego_type" speed="13.89" pos="56.32" lane="e0_0" slope="0.00"/>
    </timestep>
    <timestep time="17.50">
        <vehicle id="ego" x="63.27" y="-1.60" angle="90.00" type="ego_type" speed="13.89" pos="63.27" lane="e0_0" slope="0.00"/>
    </timestep>
    <timestep time="18.00">
        <vehicle id="ego" x="70.21" y="-1.60" angle="90.00" type="ego_type" speed="13.89" pos="70.21" lane="e0_0" slope="0.00"/>
    </timestep>
    <timestep time="18.50">
        <vehicle id="ego" x="77.16" y="-1.60" angle="90.00" type="ego_type" speed="13.89" pos="77.16" lane="e0_0" slope="0.00"/>
    </timestep>
    <timestep time="19.00">
        <vehicle id="ego" x="84.10" y="-1.60" angle="90.00" type="ego_type" speed="13.89" pos="84.10" lane="e0_0" slope="0.00"/>
    </timestep>
    <timestep time="19.50">
        <vehicle id="ego" x="91.05" y="-1.60" angle="90.00" type="ego_type" speed="13.89" pos="91.05" lane="e0_0" slope="0.00"/>
    </timestep>
    <timestep time="20.00">
        <vehicle id="ego" x="97.99" y="-1.60" angle="90.00" type="ego_type" speed="13.89" pos="97.99" lane="e0_0" slope="0.00"/>
    </timestep>
    <timestep time="20.50">
        <vehicle id="background.0" x="5.10" y="-1.60" angle="90.00" type="human" speed="13.89" pos="5.10" lane="e0_0" slope="0.00"/>
        <vehicle id="ego" x="104.94" y="-1.60" angle="90.00" type="ego_type" speed="13.89" pos="104.94" lane="e0_0" slope="0.00"/>
    </timestep>
    <timestep time="21.00">
        <vehicle id="background.0" x="11.99" y="-1.60" angle="90.00" type="human" speed="13.78" pos="11.99" lane="e0_0" slope="0.00"/>
        <vehicle id="ego" x="111.88" y="-1.60" angle="90.00" type="ego_type" speed="13.89" pos="111.88" lane="e0_0" slope="0.00"/>
    </timestep>
    <timestep time="21.50">
        <vehicle id="background.0" x="18.86" y="-1.60" angle="90.00" type="human" speed="13.73" pos="18.86" lane="e0_0" slope="0.00"/>
        <vehicle id="ego" x="118.83" y="-1.60" angle="90.00" type="ego_type" speed="13.89" pos="118.83" lane="e0_0" slope="0.00"/>
    </timestep>
    <timestep time="22.00">
        <vehicle id="background.0" x="25.57" y="-1.60" angle="90.00" type="human" speed="13.43" pos="25.57" lane="e0_0" slope="0.00"/>
        <vehicle id="ego" x="125.77" y="-1.60" angle="90.00" type="ego_type" speed="13.89" pos="125.77" lane="e0_0" slope="0.00"/>
    </timestep>
    <timestep time="22.50">
        <vehicle id="background.0" x="32.36" y="-1.60" angle="90.00" type="human" speed="13.59" pos="32.36" lane="e0_0" slope="0.00"/>
        <vehicle id="ego" x="132.72" y="-1.60" angle="90.00" type="ego_type" speed="13.89" pos="132.72" lane="e0_0" slope="0.00"/>
    </timestep>
    <timestep time="23.00">
        <vehicle id="background.0" x="39.10" y="-1.60" angle="90.00" type="human" speed="13.48" pos="39.10" lane="e0_0" slope="0.00"/>
        <vehicle id="ego" x="139.66" y="-1.60" angle="90.00" type="ego_type" speed="13.89" pos="139.66" lane="e0_0" slope="0.00"/>
    </timestep>
    <timestep time="23.50">
        <vehicle id="background.0" x="45.84" y="-1.60" angle="90.00" type="human" speed="13.48" pos="45.84" lane="e0_0" slope="0.00"/>
        <vehicle id="ego" x="146.61" y="-1.60" angle="90.00" type="ego_type" speed="13.89" pos="146.61" lane="e0_0" slope="0.00"/>
    </timestep>
    <timestep time="24.00">
        <vehicle id="background.0" x="52.73" y="-1.60" angle="90.00" type="human" speed="13.77" pos="52.73" lane="e0_0" slope="0.00"/>
        <vehicle id="ego" x="153.55" y="-1.60" angle="90.00" type="ego_type" speed="13.89" pos="153.55" lane="e0_0" slope="0.00"/>
    </timestep>
    <timestep time="24.50">
        <vehicle id="background.0" x="59.53" y="-1.60" angle="90.00" type="human" speed="13.61" pos="59.53" lane="e0_0" slope="0.00"/>
        <vehicle id="ego" x="160.50" y="-1.60" angle="90.00" type="ego_type" speed="13.89" pos="160.50" lane="e0_0" slope="0.00"/>
    </timestep>
    <timestep time="25.00">
        <vehicle id="background.0" x="66.32" y="-1.60" angle="90.00" type="human" speed="13.57" pos="66.32" lane="e0_0" slope="0.00"/>
        <vehicle id="ego" x="167.44" y="-1.60" angle="90.00" type="ego_type" speed="13.89" pos="167.44" lane="e0_0" slope="0.00"/>
    </timestep>
    <timestep time="25.50">
        <vehicle id="background.0" x="73.26" y="-1.60" angle="90.00" type="human" speed="13.89" pos="73.26" lane="e0_0" slope="0.00"/>
        <vehicle id="ego" x="174.39" y="-1.60" angle="90.00" type="ego_type" speed="13.89" pos="174.39" lane="e0_0" slope="0.00"/>
    </timestep>
    <timestep time="26.00">
        <vehicle id="background.0" x="80.05" y="-1.60" angle="90.00" type="human" speed="13.57" pos="80.05" lane="e0_0" slope="0.00"/>
        <vehicle id="ego" x="181.33" y="-1.60" angle="90.00" type="ego_type" speed="13.89" pos="181.33" lane="e0_0" slope="0.00"/>
    </timestep>
    <timestep time="26.50">
        <vehicle id="background.0" x="86.85" y="-1.60" angle="90.00" type="human" speed="13.61" pos="86.85" lane="e0_0" slope="0.00"/>
        <vehicle id="ego" x="188.28" y="-1.60" angle="90.00" type="ego_type" speed="13.89" pos="188.28" lane="e0_0" slope="0.00"/>
    </timestep>
    <timestep time="27.00">
        <vehicle id="background.0" x="93.57" y="-1.60" angle="90.00" type="human" speed="13.43" pos="93.57" lane="e0_0" slope="0.00"/>
        <vehicle id="ego" x="195.22" y="-1.60" angle="90.00" type="ego_type" speed="13.89" pos="195.22" lane="e0_0" slope="0.00"/>
    </timestep>
    <timestep time="27.50">
        <vehicle id="background.0" x="100.47" y="-1.60" angle="90.00" type="human" speed="13.80" pos="100.47" lane="e0_0" slope="0.00"/>
        <vehicle id="ego" x="202.17" y="-1.60" angle="90.00" type="ego_type" speed="13.89" pos="202.17" lane="e0_0" slope="0.00"/>
    </timestep>
    <timestep time="28.00">
        <vehicle id="background.0" x="107.40" y="-1.60" angle="90.00" type="human" speed="13.86" pos="107.40" lane="e0_0" slope="0.00"/>
        <vehicle id="ego" x="209.11" y="-1.60" angle="90.00" type="ego_type" speed="13.89" pos="209.11" lane="e0_0" slope="0.00"/>
    </timestep>
    <timestep time="28.50">
        <vehicle id="background.0" x="114.28" y="-1.60" angle="90.00" type="human" speed="13.76" pos="114.28" lane="e0_0" slope="0.00"/>
        <vehicle id="ego" x="216.06" y="-1.60" angle="90.00" type="ego_type" speed="13.89" pos="216.06" lane="e0_0" slope="0.00"/>
    </timestep>
    <timestep time="29.00">
        <vehicle id="background.0" x="121.22" y="-1.60" angle="90.00" type="human" speed="13.88" pos="121.22" lane="e0_0" slope="0.00"/>
        <vehicle id="ego" x="223.00" y="-1.60" angle="90.00" type="ego_type" speed="13.89" pos="223.00" lane="e0_0" slope="0.00"/>
    </timestep>
    <timestep time="29.50">
        <vehicle id="background.0" x="127.92" y="-1.60" angle="90.00" type="human" speed="13.41" pos="127.92" lane="e0_0" slope="0.00"/>
        <vehicle id="ego" x="229.95" y="-1.60" angle="90.00" type="ego_type" speed="13.89" pos="229.95" lane="e0_0" slope="0.00"/>
    </timestep>
    <timestep time="30.00">
        <vehicle id="background.0" x="134.66" y="-1.60" angle="90.00" type="human" speed="13.48" pos="134.66" lane="e0_0" slope="0.00"/>
        <vehicle id="ego" x="236.89" y="-1.60" angle="90.00" type="ego_type" speed="13.89" pos="236.89" lane="e0_0" slope="0.00"/>
    </timestep>
    <timestep time="30.50">
        <vehicle id="background.0" x="141.42" y="-1.60" angle="90.00" type="human" speed="13.52" pos="141.42" lane="e0_0" slope="0.00"/>
        <vehicle id="ego" x="243.84" y="-1.60" angle="90.00" type="ego_type" speed="13.89" pos="243.84" lane="e0_0" slope="0.00"/>
    </timestep>
    <timestep time="31.00">
        <vehicle id="background.0" x="148.33" y="-1.60" angle="90.00" type="human" speed="13.81" pos="148.33" lane="e0_0" slope="0.00"/>
        <vehicle id="ego" x="250.78" y="-1.60" angle="90.00" type="ego_type" speed="13.89" pos="250.78" lane="e0_0" slope="0.00"/>
    </timestep>
    <timestep time="31.50">
        <vehicle id="background.0" x="155.07" y="-1.60" angle="90.00" type="human" speed="13.50" pos="155.07" lane="e0_0" slope="0.00"/>
        <vehicle id="ego" x="257.73" y="-1.60" angle="90.00" type="ego_type" speed="13.89" pos="257.73" lane="e0_0" slope="0.00"/>
    </timestep>
    <timestep time="32.00">
        <vehicle id="background.0" x="161.92" y="-1.60" angle="90.00" type="human" speed="13.69" pos="161.92" lane="e0_0" slope="0.00"/>
        <vehicle id="ego" x="264.67" y="-1.60" angle="90.00" type="ego_type" speed="13.89" pos="264.67" lane="e0_0" slope="0.00"/>
    </timestep>
    <timestep time="32.50">
        <vehicle id="background.0" x="168.62" y="-1.60" angle="90.00" type="human" speed="13.40" pos="168.62" lane="e0_0" slope="0.00"/>
        <vehicle id="ego" x="271.62" y="-1.60" angle="90.00" type="ego_type" speed="13.89" pos="271.62" lane="e0_0" slope="0.00"/>
    </timestep>
    <timestep time="33.00">
        <vehicle id="background.0" x="175.51" y="-1.60" angle="90.00" type="human" speed="13.78" pos="175.51" lane="e0_0" slope="0.00"/>
        <vehicle id="ego" x="278.56" y="-1.60" angle="90.00" type="ego_type" speed="13.89" pos="278.56" lane="e0_0" slope="0.00"/>
    </timestep>
    <timestep time="33.50">
        <vehicle id="background.0" x="182.31" y="-1.60" angle="90.00" type="human" speed="13.61" pos="182.31" lane="e0_0" slope="0.00"/>
        <vehicle id="ego" x="285.51" y="-1.60" angle="90.00" type="ego_type" speed="13.89" pos="285.51" lane="e0_0" slope="0.00"/>
    </timestep>
    <timestep time="34.00">
        <vehicle id="background.0" x="189.02" y="-1.60" angle="90.00" type="human" speed="13.41" pos="189.02" lane="e0_0" slope="0.00"/>
        <vehicle id="ego" x="292.45" y="-1.60" angle="90.00" type="ego_type" speed="13.89" pos="292.45" lane="e0_0" slope="0.00"/>
    </timestep>
    <timestep time="34.50">
        <vehicle id="background.0" x="195.90" y="-1.60" angle="90.00" type="human" speed="13.77" pos="195.90" lane="e0_0" slope="0.00"/>
        <vehicle id="ego" x="299.40" y="-1.60" angle="90.00" type="ego_type" speed="13.89" pos="299.40" lane="e0_0" slope="0.00"/>
    </timestep>
    <timestep time="35.00">
        <vehicle id="background.0" x="202.63" y="-1.60" angle="90.00" type="human" speed="13.46" pos="202.63" lane="e0_0" slope="0.00"/>
        <vehicle id="ego" x="306.24" y="-1.60" angle="90.00" type="ego_type" speed="13.89" pos="6.24" lane="e1_0" slope="0.00"/>
    </timestep>
    <timestep time="35.50">
        <vehicle id="background.0" x="209.51" y="-1.60" angle="90.00" type="human" speed="13.76" pos="209.51" lane="e0_0" slope="0.00"/>
        <vehicle id="ego" x="313.19" y="-1.60" angle="90.00" type="ego_type" speed="13.89" pos="13.19" lane="e1_0" slope="0.00"/>
    </timestep>
    <timestep time="36.00">
        <vehicle id="background.0" x="216.36" y="-1.60" angle="90.00" type="human" speed="13.70" pos="216.36" lane="e0_0" slope="0.00"/>
        <vehicle id="ego" x="320.13" y="-1.60" angle="90.00" type="ego_type" speed="13.89" pos="20.13" lane="e1_0" slope="0.00"/>
    </timestep>
    <timestep time="36.50">
        <vehicle id="background.0" x="223.28" y="-1.60" angle="90.00" type="human" speed="13.83" pos="223.28" lane="e0_0" slope="0.00"/>
        <vehicle id="ego" x="327.08" y="-1.60" angle="90.00" type="ego_type" speed="13.89" pos="27.08" lane="e1_0" slope="0.00"/>
    </timestep>
    <timestep time="37.00">
        <vehicle id="background.0" x="230.02" y="-1.60" angle="90.00" type="human" speed="13.49" pos="230.02" lane="e0_0" slope="0.00"/>
        <vehicle id="ego" x="334.02" y="-1.60" angle="90.00" type="ego_type" speed="13.89" pos="34.02" lane="e1_0" slope="0.00"/>
    </timestep>
    <timestep time="37.50">
        <vehicle id="background.0" x="236.79" y="-1.60" angle="90.00" type="human" speed="13.53" pos="236.79" lane="e0_0" slope="0.00"/>
        <vehicle id="ego" x="340.97" y="-1.60" angle="90.00" type="ego_type" speed="13.89" pos="40.97" lane="e1_0" slope="0.00"/>
    </timestep>
    <timestep time="38.00">
        <vehicle id="background.0" x="243.59" y="-1.60" angle="90.00" type="human" speed="13.61" pos="243.59" lane="e0_0" slope="0.00"/>
        <vehicle id="ego" x="347.91" y="-1.60" angle="90.00" type="ego_type" speed="13.89" pos="47.91" lane="e1_0" slope="0.00"/>
    </timestep>
    <timestep time="38.50">
        <vehicle id="background.0" x="250.46" y="-1.60" angle="90.00" type="human" speed="13.73" pos="250.46" lane="e0_0" slope="0.00"/>
    </timestep>
</fcd-export>
