<?xml version="1.0" encoding="UTF-8"?>

<!-- generated on 2026-05-14 17:04:21 by Eclipse SUMO sumo Version 1.24.0
<sumoConfiguration xmlns:xsi="http://www.w3.org/2001/XMLSchema-instance" xsi:noNamespaceSchemaLocation="http://sumo.dlr.de/xsd/sumoConfiguration.xsd">

    <input>
        <net-file value="scenarios/simple_arterial/simple_arterial.net.xml"/>
        <route-files value="scenarios/simple_arterial/simple_arterial.rou.xml"/>
        <additional-files value="scenarios/simple_arterial/simple_arterial.tls.xml"/>
    </input>

    <output>
        <fcd-output value="runs/fcd_expert_default/episode_00029_seed_71.fcd.xml"/>
    </output>

    <time>
        <begin value="0"/>
        <end value="900"/>
        <step-length value="0.5"/>
    </time>

    <report>
        <no-warnings value="true"/>
    </report>

    <traci_server>
        <remote-port value="24542"/>
    </traci_server>

    <random_number>
        <seed value="71"/>
    </random_number>

</sumoConfiguration>
-->

<fcd-export xmlns:xsi="http://www.w3.org/2001/XMLSchema-instance" xsi:noNamespaceSchemaLocation="http://sumo.dlr.de/xsd/fcd_file.xsd">
    <timestep time="0.00"/>
    <timestep time="0.50"/>
    <timestep time="1.00"/>
    <timestep time="1.50"/>
    <timestep time="2.00"/>
    <timestep time="2.50"/>
    <timestep time="3.00"/>
    <timestep time="3.50"/>
    <timestep time="4.00"/>
    <timestep time="4.50"/>
    <timestep time="5.00"/>
    <timestep time="5.50"/>
    <timestep time="6.00"/>
    <timestep time="6.50"/>
    <timestep time="7.00"/>
    <timestep time="7.50"/>
    <timestep time="8.00"/>
    <timestep time="8.50"/>
    <timestep time="9.00"/>
    <timestep time="9.50"/>
    <timestep time="10.00"/>
    <timestep time="10.50"/>
    <timestep time="11.00"/>
    <timestep time="11.50"/>
    <timestep time="12.00"/>
    <timestep time="12.50"/>
    <timestep time="13.00"/>
    <timestep time="13.50"/>
    <timestep time="14.00"/>
    <timestep time="14.50"/>
    <timestep time="15.00"/>
    <timestep time="15.50"/>
    <timestep time="16.00"/>
    <timestep time="16.50"/>
    <timestep time="17.00"/>
    <timestep time="17.50"/>
    <timestep time="18.00"/>
    <timestep time="18.50"/>
    <timestep time="19.00"/>
    <timestep time="19.50"/>
    <timestep time="20.00"/>
    <timestep time="20.50"/>
    <timestep time="21.00"/>
    <timestep time="21.50"/>
    <timestep time="22.00"/>
    <timestep time="22.50"/>
    <timestep time="23.00">
        <vehicle id="ego" x="5.10" y="-1.60" angle="90.00" type="ego_type" speed="0.00" pos="5.10" lane="e0_0" slope="0.00"/>
    </timestep>
    <timestep time="23.50">
        <vehicle id="ego" x="5.60" y="-1.60" angle="90.00" type="ego_type" speed="1.00" pos="5.60" lane="e0_0" slope="0.00"/>
    </timestep>
    <timestep time="24.00">
        <vehicle id="ego" x="6.60" y="-1.60" angle="90.00" type="ego_type" speed="2.00" pos="6.60" lane="e0_0" slope="0.00"/>
    </timestep>
    <timestep time="24.50">
        <vehicle id="ego" x="8.10" y="-1.60" angle="90.00" type="ego_type" speed="3.00" pos="8.10" lane="e0_0" slope="0.00"/>
    </timestep>
    <timestep time="25.00">
        <vehicle id="ego" x="10.10" y="-1.60" angle="90.00" type="ego_type" speed="4.00" pos="10.10" lane="e0_0" slope="0.00"/>
    </timestep>
    <timestep time="25.50">
        <vehicle id="ego" x="12.60" y="-1.60" angle="90.00" type="ego_type" speed="5.00" pos="12.60" lane="e0_0" slope="0.00"/>
    </timestep>
    <timestep time="26.00">
        <vehicle id="ego" x="15.60" y="-1.60" angle="90.00" type="ego_type" speed="6.00" pos="15.60" lane="e0_0" slope="0.00"/>
    </timestep>
    <timestep time="26.50">
        <vehicle id="ego" x="19.10" y="-1.60" angle="90.00" type="ego_type" speed="7.00" pos="19.10" lane="e0_0" slope="0.00"/>
    </timestep>
    <timestep time="27.00">
        <vehicle id="ego" x="23.10" y="-1.60" angle="90.00" type="ego_type" speed="8.00" pos="23.10" lane="e0_0" slope="0.00"/>
    </timestep>
    <timestep time="27.50">
        <vehicle id="ego" x="27.60" y="-1.60" angle="90.00" type="ego_type" speed="9.00" pos="27.60" lane="e0_0" slope="0.00"/>
    </timestep>
    <timestep time="28.00">
        <vehicle id="ego" x="32.60" y="-1.60" angle="90.00" type="ego_type" speed="10.00" pos="32.60" lane="e0_0" slope="0.00"/>
    </timestep>
    <timestep time="28.50">
        <vehicle id="ego" x="38.10" y="-1.60" angle="90.00" type="ego_type" speed="11.00" pos="38.10" lane="e0_0" slope="0.00"/>
    </timestep>
    <timestep time="29.00">
        <vehicle id="ego" x="44.10" y="-1.60" angle="90.00" type="ego_type" speed="12.00" pos="44.10" lane="e0_0" slope="0.00"/>
    </timestep>
    <timestep time="29.50">
        <vehicle id="ego" x="50.56" y="-1.60" angle="90.00" type="ego_type" speed="12.92" pos="50.56" lane="e0_0" slope="0.00"/>
    </timestep>
    <timestep time="30.00">
        <vehicle id="ego" x="57.02" y="-1.60" angle="90.00" type="ego_type" speed="12.92" pos="57.02" lane="e0_0" slope="0.00"/>
    </timestep>
    <timestep time="30.50">
        <vehicle id="ego" x="63.48" y="-1.60" angle="90.00" type="ego_type" speed="12.92" pos="63.48" lane="e0_0" slope="0.00"/>
    </timestep>
    <timestep time="31.00">
        <vehicle id="ego" x="69.94" y="-1.60" angle="90.00" type="ego_type" speed="12.92" pos="69.94" lane="e0_0" slope="0.00"/>
    </timestep>
    <timestep time="31.50">
        <vehicle id="ego" x="76.40" y="-1.60" angle="90.00" type="ego_type" speed="12.92" pos="76.40" lane="e0_0" slope="0.00"/>
    </timestep>
    <timestep time="32.00">
        <vehicle id="ego" x="82.86" y="-1.60" angle="90.00" type="ego_type" speed="12.92" pos="82.86" lane="e0_0" slope="0.00"/>
    </timestep>
    <timestep time="32.50">
        <vehicle id="ego" x="89.32" y="-1.60" angle="90.00" type="ego_type" speed="12.92" pos="89.32" lane="e0_0" slope="0.00"/>
    </timestep>
    <timestep time="33.00">
        <vehicle id="ego" x="95.78" y="-1.60" angle="90.00" type="ego_type" speed="12.92" pos="95.78" lane="e0_0" slope="0.00"/>
    </timestep>
    <timestep time="33.50">
        <vehicle id="ego" x="102.24" y="-1.60" angle="90.00" type="ego_type" speed="12.92" pos="102.24" lane="e0_0" slope="0.00"/>
    </timestep>
    <timestep time="34.00">
        <vehicle id="ego" x="108.70" y="-1.60" angle="90.00" type="ego_type" speed="12.92" pos="108.70" lane="e0_0" slope="0.00"/>
    </timestep>
    <timestep time="34.50">
        <vehicle id="ego" x="115.16" y="-1.60" angle="90.00" type="ego_type" speed="12.92" pos="115.16" lane="e0_0" slope="0.00"/>
    </timestep>
    <timestep time="35.00">
        <vehicle id="ego" x="121.62" y="-1.60" angle="90.00" type="ego_type" speed="12.92" pos="121.62" lane="e0_0" slope="0.00"/>
    </timestep>
    <timestep time="35.50">
        <vehicle id="ego" x="128.08" y="-1.60" angle="90.00" type="ego_type" speed="12.92" pos="128.08" lane="e0_0" slope="0.00"/>
    </timestep>
    <timestep time="36.00">
        <vehicle id="ego" x="134.54" y="-1.60" angle="90.00" type="ego_type" speed="12.92" pos="134.54" lane="e0_0" slope="0.00"/>
    </timestep>
    <timestep time="36.50">
        <vehicle id="ego" x="141.00" y="-1.60" angle="90.00" type="ego_type" speed="12.92" pos="141.00" lane="e0_0" slope="0.00"/>
    </timestep>
    <timestep time="37.00">
        <vehicle id="ego" x="147.46" y="-1.60" angle="90.00" type="ego_type" speed="12.92" pos="147.46" lane="e0_0" slope="0.00"/>
    </timestep>
    <timestep time="37.50">
        <vehicle id="background.0" x="5.10" y="-1.60" angle="90.00" type="human" speed="12.92" pos="5.10" lane="e0_0" slope="0.00"/>
        <vehicle id="ego" x="153.92" y="-1.60" angle="90.00" type="ego_type" speed="12.92" pos="153.92" lane="e0_0" slope="0.00"/>
    </timestep>
    <timestep time="38.00">
        <vehicle id="background.0" x="11.40" y="-1.60" angle="90.00" type="human" speed="12.60" pos="11.40" lane="e0_0" slope="0.00"/>
        <vehicle id="ego" x="160.38" y="-1.60" angle="90.00" type="ego_type" speed="12.92" pos="160.38" lane="e0_0" slope="0.00"/>
    </timestep>
    <timestep time="38.50">
        <vehicle id="background.0" x="17.72" y="-1.60" angle="90.00" type="human" speed="12.63" pos="17.72" lane="e0_0" slope="0.00"/>
        <vehicle id="ego" x="166.84" y="-1.60" angle="90.00" type="ego_type" speed="12.92" pos="166.84" lane="e0_0" slope="0.00"/>
    </timestep>
    <timestep time="39.00">
        <vehicle id="background.0" x="23.98" y="-1.60" angle="90.00" type="human" speed="12.53" pos="23.98" lane="e0_0" slope="0.00"/>
        <vehicle id="ego" x="173.30" y="-1.60" angle="90.00" type="ego_type" speed="12.92" pos="173.30" lane="e0_0" slope="0.00"/>
    </timestep>
    <timestep time="39.50">
        <vehicle id="background.0" x="30.29" y="-1.60" angle="90.00" type="human" speed="12.61" pos="30.29" lane="e0_0" slope="0.00"/>
        <vehicle id="ego" x="179.77" y="-1.60" angle="90.00" type="ego_type" speed="12.92" pos="179.77" lane="e0_0" slope="0.00"/>
    </timestep>
    <timestep time="40.00">
        <vehicle id="background.0" x="36.59" y="-1.60" angle="90.00" type="human" speed="12.61" pos="36.59" lane="e0_0" slope="0.00"/>
        <vehicle id="ego" x="186.23" y="-1.60" angle="90.00" type="ego_type" speed="12.92" pos="186.23" lane="e0_0" slope="0.00"/>
    </timestep>
    <timestep time="40.50">
        <vehicle id="background.0" x="42.96" y="-1.60" angle="90.00" type="human" speed="12.74" pos="42.96" lane="e0_0" slope="0.00"/>
        <vehicle id="ego" x="192.69" y="-1.60" angle="90.00" type="ego_type" speed="12.92" pos="192.69" lane="e0_0" slope="0.00"/>
    </timestep>
    <timestep time="41.00">
        <vehicle id="background.0" x="49.38" y="-1.60" angle="90.00" type="human" speed="12.84" pos="49.38" lane="e0_0" slope="0.00"/>
        <vehicle id="ego" x="199.15" y="-1.60" angle="90.00" type="ego_type" speed="12.92" pos="199.15" lane="e0_0" slope="0.00"/>
    </timestep>
    <timestep time="41.50">
        <vehicle id="background.0" x="55.65" y="-1.60" angle="90.00" type="human" speed="12.55" pos="55.65" lane="e0_0" slope="0.00"/>
        <vehicle id="ego" x="205.61" y="-1.60" angle="90.00" type="ego_type" speed="12.92" pos="205.61" lane="e0_0" slope="0.00"/>
    </timestep>
    <timestep time="42.00">
        <vehicle id="background.0" x="62.01" y="-1.60" angle="90.00" type="human" speed="12.72" pos="62.01" lane="e0_0" slope="0.00"/>
        <vehicle id="ego" x="212.07" y="-1.60" angle="90.00" type="ego_type" speed="12.92" pos="212.07" lane="e0_0" slope="0.00"/>
    </timestep>
    <timestep time="42.50">
        <vehicle id="background.0" x="68.31" y="-1.60" angle="90.00" type="human" speed="12.59" pos="68.31" lane="e0_0" slope="0.00"/>
        <vehicle id="ego" x="218.53" y="-1.60" angle="90.00" type="ego_type" speed="12.92" pos="218.53" lane="e0_0" slope="0.00"/>
    </timestep>
    <timestep time="43.00">
        <vehicle id="background.0" x="74.69" y="-1.60" angle="90.00" type="human" speed="12.76" pos="74.69" lane="e0_0" slope="0.00"/>
        <vehicle id="ego" x="224.99" y="-1.60" angle="90.00" type="ego_type" speed="12.92" pos="224.99" lane="e0_0" slope="0.00"/>
    </timestep>
    <timestep time="43.50">
        <vehicle id="background.0" x="81.13" y="-1.60" angle="90.00" type="human" speed="12.89" pos="81.13" lane="e0_0" slope="0.00"/>
        <vehicle id="ego" x="231.45" y="-1.60" angle="90.00" type="ego_type" speed="12.92" pos="231.45" lane="e0_0" slope="0.00"/>
    </timestep>
    <timestep time="44.00">
        <vehicle id="background.0" x="87.58" y="-1.60" angle="90.00" type="human" speed="12.90" pos="87.58" lane="e0_0" slope="0.00"/>
        <vehicle id="ego" x="237.91" y="-1.60" angle="90.00" type="ego_type" speed="12.92" pos="237.91" lane="e0_0" slope="0.00"/>
    </timestep>
    <timestep time="44.50">
        <vehicle id="background.0" x="93.93" y="-1.60" angle="90.00" type="human" speed="12.70" pos="93.93" lane="e0_0" slope="0.00"/>
        <vehicle id="ego" x="244.37" y="-1.60" angle="90.00" type="ego_type" speed="12.92" pos="244.37" lane="e0_0" slope="0.00"/>
    </timestep>
    <timestep time="45.00">
        <vehicle id="background.0" x="100.21" y="-1.60" angle="90.00" type="human" speed="12.57" pos="100.21" lane="e0_0" slope="0.00"/>
        <vehicle id="ego" x="250.83" y="-1.60" angle="90.00" type="ego_type" speed="12.92" pos="250.83" lane="e0_0" slope="0.00"/>
    </timestep>
    <timestep time="45.50">
        <vehicle id="background.0" x="106.48" y="-1.60" angle="90.00" type="human" speed="12.53" pos="106.48" lane="e0_0" slope="0.00"/>
        <vehicle id="ego" x="257.29" y="-1.60" angle="90.00" type="ego_type" speed="12.92" pos="257.29" lane="e0_0" slope="0.00"/>
    </timestep>
    <timestep time="46.00">
        <vehicle id="background.0" x="112.88" y="-1.60" angle="90.00" type="human" speed="12.80" pos="112.88" lane="e0_0" slope="0.00"/>
        <vehicle id="ego" x="263.75" y="-1.60" angle="90.00" type="ego_type" speed="12.92" pos="263.75" lane="e0_0" slope="0.00"/>
    </timestep>
    <timestep time="46.50">
        <vehicle id="background.0" x="119.17" y="-1.60" angle="90.00" type="human" speed="12.59" pos="119.17" lane="e0_0" slope="0.00"/>
        <vehicle id="ego" x="270.21" y="-1.60" angle="90.00" type="ego_type" speed="12.92" pos="270.21" lane="e0_0" slope="0.00"/>
    </timestep>
    <timestep time="47.00">
        <vehicle id="background.0" x="125.42" y="-1.60" angle="90.00" type="human" speed="12.49" pos="125.42" lane="e0_0" slope="0.00"/>
        <vehicle id="ego" x="276.67" y="-1.60" angle="90.00" type="ego_type" speed="12.92" pos="276.67" lane="e0_0" slope="0.00"/>
    </timestep>
    <timestep time="47.50">
        <vehicle id="background.0" x="131.82" y="-1.60" angle="90.00" type="human" speed="12.82" pos="131.82" lane="e0_0" slope="0.00"/>
        <vehicle id="ego" x="283.13" y="-1.60" angle="90.00" type="ego_type" speed="12.92" pos="283.13" lane="e0_0" slope="0.00"/>
    </timestep>
    <timestep time="48.00">
        <vehicle id="background.0" x="138.25" y="-1.60" angle="90.00" type="human" speed="12.86" pos="138.25" lane="e0_0" slope="0.00"/>
        <vehicle id="ego" x="288.55" y="-1.60" angle="90.00" type="ego_type" speed="10.85" pos="288.55" lane="e0_0" slope="0.00"/>
    </timestep>
    <timestep time="48.50">
        <vehicle id="background.0" x="144.51" y="-1.60" angle="90.00" type="human" speed="12.52" pos="144.51" lane="e0_0" slope="0.00"/>
        <vehicle id="ego" x="292.85" y="-1.60" angle="90.00" type="ego_type" speed="8.60" pos="292.85" lane="e0_0" slope="0.00"/>
    </timestep>
    <timestep time="49.00">
        <vehicle id="background.0" x="150.96" y="-1.60" angle="90.00" type="human" speed="12.90" pos="150.96" lane="e0_0" slope="0.00"/>
        <vehicle id="ego" x="296.03" y="-1.60" angle="90.00" type="ego_type" speed="6.35" pos="296.03" lane="e0_0" slope="0.00"/>
    </timestep>
    <timestep time="49.50">
        <vehicle id="background.0" x="157.33" y="-1.60" angle="90.00" type="human" speed="12.74" pos="157.33" lane="e0_0" slope="0.00"/>
        <vehicle id="ego" x="298.07" y="-1.60" angle="90.00" type="ego_type" speed="4.10" pos="298.07" lane="e0_0" slope="0.00"/>
    </timestep>
    <timestep time="50.00">
        <vehicle id="background.0" x="163.62" y="-1.60" angle="90.00" type="human" speed="12.58" pos="163.62" lane="e0_0" slope="0.00"/>
        <vehicle id="ego" x="299.00" y="-1.60" angle="90.00" type="ego_type" speed="1.85" pos="299.00" lane="e0_0" slope="0.00"/>
    </timestep>
    <timestep time="50.50">
        <vehicle id="background.0" x="169.88" y="-1.60" angle="90.00" type="human" speed="12.51" pos="169.88" lane="e0_0" slope="0.00"/>
        <vehicle id="ego" x="299.00" y="-1.60" angle="90.00" type="ego_type" speed="0.00" pos="299.00" lane="e0_0" slope="0.00"/>
    </timestep>
    <timestep time="51.00">
        <vehicle id="background.0" x="176.23" y="-1.60" angle="90.00" type="human" speed="12.70" pos="176.23" lane="e0_0" slope="0.00"/>
        <vehicle id="ego" x="299.00" y="-1.60" angle="90.00" type="ego_type" speed="0.00" pos="299.00" lane="e0_0" slope="0.00"/>
    </timestep>
    <timestep time="51.50">
        <vehicle id="background.0" x="182.67" y="-1.60" angle="90.00" type="human" speed="12.88" pos="182.67" lane="e0_0" slope="0.00"/>
        <vehicle id="ego" x="299.00" y="-1.60" angle="90.00" type="ego_type" speed="0.00" pos="299.00" lane="e0_0" slope="0.00"/>
    </timestep>
    <timestep time="52.00">
        <vehicle id="background.0" x="189.10" y="-1.60" angle="90.00" type="human" speed="12.87" pos="189.10" lane="e0_0" slope="0.00"/>
        <vehicle id="ego" x="299.00" y="-1.60" angle="90.00" type="ego_type" speed="0.00" pos="299.00" lane="e0_0" slope="0.00"/>
    </timestep>
    <timestep time="52.50">
        <vehicle id="background.0" x="195.39" y="-1.60" angle="90.00" type="human" speed="12.57" pos="195.39" lane="e0_0" slope="0.00"/>
        <vehicle id="ego" x="299.00" y="-1.60" angle="90.00" type="ego_type" speed="0.00" pos="299.00" lane="e0_0" slope="0.00"/>
    </timestep>
    <timestep time="53.00">
        <vehicle id="background.0" x="201.65" y="-1.60" angle="90.00" type="human" speed="12.52" pos="201.65" lane="e0_0" slope="0.00"/>
        <vehicle id="background.1" x="5.10" y="-1.60" angle="90.00" type="human" speed="13.56" pos="5.10" lane="e0_0" slope="0.00"/>
        <vehicle id="ego" x="299.00" y="-1.60" angle="90.00" type="ego_type" speed="0.00" pos="299.00" lane="e0_0" slope="0.00"/>
    </timestep>
    <timestep time="53.50">
        <vehicle id="background.0" x="208.03" y="-1.60" angle="90.00" type="human" speed="12.76" pos="208.03" lane="e0_0" slope="0.00"/>
        <vehicle id="background.1" x="11.65" y="-1.60" angle="90.00" type="human" speed="13.11" pos="11.65" lane="e0_0" slope="0.00"/>
        <vehicle id="ego" x="299.00" y="-1.60" angle="90.00" type="ego_type" speed="0.00" pos="299.00" lane="e0_0" slope="0.00"/>
    </timestep>
    <timestep time="54.00">
        <vehicle id="background.0" x="214.32" y="-1.60" angle="90.00" type="human" speed="12.57" pos="214.32" lane="e0_0" slope="0.00"/>
        <vehicle id="background.1" x="18.25" y="-1.60" angle="90.00" type="human" speed="13.20" pos="18.25" lane="e0_0" slope="0.00"/>
        <vehicle id="ego" x="299.00" y="-1.60" angle="90.00" type="ego_type" speed="0.00" pos="299.00" lane="e0_0" slope="0.00"/>
    </timestep>
    <timestep time="54.50">
        <vehicle id="background.0" x="220.71" y="-1.60" angle="90.00" type="human" speed="12.78" pos="220.71" lane="e0_0" slope="0.00"/>
        <vehicle id="background.1" x="24.99" y="-1.60" angle="90.00" type="human" speed="13.47" pos="24.99" lane="e0_0" slope="0.00"/>
        <vehicle id="ego" x="299.00" y="-1.60" angle="90.00" type="ego_type" speed="0.00" pos="299.00" lane="e0_0" slope="0.00"/>
    </timestep>
    <timestep time="55.00">
        <vehicle id="background.0" x="226.95" y="-1.60" angle="90.00" type="human" speed="12.48" pos="226.95" lane="e0_0" slope="0.00"/>
        <vehicle id="background.1" x="31.70" y="-1.60" angle="90.00" type="human" speed="13.43" pos="31.70" lane="e0_0" slope="0.00"/>
        <vehicle id="ego" x="299.00" y="-1.60" angle="90.00" type="ego_type" speed="0.00" pos="299.00" lane="e0_0" slope="0.00"/>
    </timestep>
    <timestep time="55.50">
        <vehicle id="background.0" x="233.37" y="-1.60" angle="90.00" type="human" speed="12.84" pos="233.37" lane="e0_0" slope="0.00"/>
        <vehicle id="background.1" x="38.31" y="-1.60" angle="90.00" type="human" speed="13.21" pos="38.31" lane="e0_0" slope="0.00"/>
        <vehicle id="ego" x="299.00" y="-1.60" angle="90.00" type="ego_type" speed="0.00" pos="299.00" lane="e0_0" slope="0.00"/>
    </timestep>
    <timestep time="56.00">
        <vehicle id="background.0" x="239.79" y="-1.60" angle="90.00" type="human" speed="12.84" pos="239.79" lane="e0_0" slope="0.00"/>
        <vehicle id="background.1" x="44.88" y="-1.60" angle="90.00" type="human" speed="13.14" pos="44.88" lane="e0_0" slope="0.00"/>
        <vehicle id="ego" x="299.00" y="-1.60" angle="90.00" type="ego_type" speed="0.00" pos="299.00" lane="e0_0" slope="0.00"/>
    </timestep>
    <timestep time="56.50">
        <vehicle id="background.0" x="246.03" y="-1.60" angle="90.00" type="human" speed="12.47" pos="246.03" lane="e0_0" slope="0.00"/>
        <vehicle id="background.1" x="51.57" y="-1.60" angle="90.00" type="human" speed="13.39" pos="51.57" lane="e0_0" slope="0.00"/>
        <vehicle id="ego" x="299.00" y="-1.60" angle="90.00" type="ego_type" speed="0.00" pos="299.00" lane="e0_0" slope="0.00"/>
    </timestep>
    <timestep time="57.00">
        <vehicle id="background.0" x="252.41" y="-1.60" angle="90.00" type="human" speed="12.75" pos="252.41" lane="e0_0" slope="0.00"/>
        <vehicle id="background.1" x="58.27" y="-1.60" angle="90.00" type="human" speed="13.38" pos="58.27" lane="e0_0" slope="0.00"/>
        <vehicle id="ego" x="299.00" y="-1.60" angle="90.00" type="ego_type" speed="0.00" pos="299.00" lane="e0_0" slope="0.00"/>
    </timestep>
    <timestep time="57.50">
        <vehicle id="background.0" x="258.85" y="-1.60" angle="90.00" type="human" speed="12.88" pos="258.85" lane="e0_0" slope="0.00"/>
        <vehicle id="background.1" x="64.81" y="-1.60" angle="90.00" type="human" speed="13.09" pos="64.81" lane="e0_0" slope="0.00"/>
        <vehicle id="ego" x="299.00" y="-1.60" angle="90.00" type="ego_type" speed="0.00" pos="299.00" lane="e0_0" slope="0.00"/>
    </timestep>
    <timestep time="58.00">
        <vehicle id="background.0" x="265.21" y="-1.60" angle="90.00" type="human" speed="12.73" pos="265.21" lane="e0_0" slope="0.00"/>
        <vehicle id="background.1" x="71.55" y="-1.60" angle="90.00" type="human" speed="13.47" pos="71.55" lane="e0_0" slope="0.00"/>
        <vehicle id="ego" x="299.00" y="-1.60" angle="90.00" type="ego_type" speed="0.00" pos="299.00" lane="e0_0" slope="0.00"/>
    </timestep>
    <timestep time="58.50">
        <vehicle id="background.0" x="271.27" y="-1.60" angle="90.00" type="human" speed="12.12" pos="271.27" lane="e0_0" slope="0.00"/>
        <vehicle id="background.1" x="78.15" y="-1.60" angle="90.00" type="human" speed="13.21" pos="78.15" lane="e0_0" slope="0.00"/>
        <vehicle id="ego" x="299.00" y="-1.60" angle="90.00" type="ego_type" speed="0.00" pos="299.00" lane="e0_0" slope="0.00"/>
    </timestep>
    <timestep time="59.00">
        <vehicle id="background.0" x="276.39" y="-1.60" angle="90.00" type="human" speed="10.23" pos="276.39" lane="e0_0" slope="0.00"/>
        <vehicle id="background.1" x="84.87" y="-1.60" angle="90.00" type="human" speed="13.43" pos="84.87" lane="e0_0" slope="0.00"/>
        <vehicle id="ego" x="299.00" y="-1.60" angle="90.00" type="ego_type" speed="0.00" pos="299.00" lane="e0_0" slope="0.00"/>
    </timestep>
    <timestep time="59.50">
        <vehicle id="background.0" x="280.60" y="-1.60" angle="90.00" type="human" speed="8.42" pos="280.60" lane="e0_0" slope="0.00"/>
        <vehicle id="background.1" x="91.61" y="-1.60" angle="90.00" type="human" speed="13.49" pos="91.61" lane="e0_0" slope="0.00"/>
        <vehicle id="ego" x="299.00" y="-1.60" angle="90.00" type="ego_type" speed="0.00" pos="299.00" lane="e0_0" slope="0.00"/>
    </timestep>
    <timestep time="60.00">
        <vehicle id="background.0" x="283.93" y="-1.60" angle="90.00" type="human" speed="6.66" pos="283.93" lane="e0_0" slope="0.00"/>
        <vehicle id="background.1" x="98.25" y="-1.60" angle="90.00" type="human" speed="13.28" pos="98.25" lane="e0_0" slope="0.00"/>
        <vehicle id="ego" x="299.00" y="-1.60" angle="90.00" type="ego_type" speed="0.00" pos="299.00" lane="e0_0" slope="0.00"/>
    </timestep>
    <timestep time="60.50">
        <vehicle id="background.0" x="286.64" y="-1.60" angle="90.00" type="human" speed="5.42" pos="286.64" lane="e0_0" slope="0.00"/>
        <vehicle id="background.1" x="105.02" y="-1.60" angle="90.00" type="human" speed="13.55" pos="105.02" lane="e0_0" slope="0.00"/>
        <vehicle id="ego" x="299.00" y="-1.60" angle="90.00" type="ego_type" speed="0.00" pos="299.00" lane="e0_0" slope="0.00"/>
    </timestep>
    <timestep time="61.00">
        <vehicle id="background.0" x="288.60" y="-1.60" angle="90.00" type="human" speed="3.92" pos="288.60" lane="e0_0" slope="0.00"/>
        <vehicle id="background.1" x="111.65" y="-1.60" angle="90.00" type="human" speed="13.25" pos="111.65" lane="e0_0" slope="0.00"/>
        <vehicle id="ego" x="299.00" y="-1.60" angle="90.00" type="ego_type" speed="0.00" pos="299.00" lane="e0_0" slope="0.00"/>
    </timestep>
    <timestep time="61.50">
        <vehicle id="background.0" x="289.77" y="-1.60" angle="90.00" type="human" speed="2.33" pos="289.77" lane="e0_0" slope="0.00"/>
        <vehicle id="background.1" x="118.41" y="-1.60" angle="90.00" type="human" speed="13.53" pos="118.41" lane="e0_0" slope="0.00"/>
        <vehicle id="ego" x="299.00" y="-1.60" angle="90.00" type="ego_type" speed="0.00" pos="299.00" lane="e0_0" slope="0.00"/>
    </timestep>
    <timestep time="62.00">
        <vehicle id="background.0" x="290.59" y="-1.60" angle="90.00" type="human" speed="1.64" pos="290.59" lane="e0_0" slope="0.00"/>
        <vehicle id="background.1" x="125.12" y="-1.60" angle="90.00" type="human" speed="13.41" pos="125.12" lane="e0_0" slope="0.00"/>
        <vehicle id="ego" x="299.00" y="-1.60" angle="90.00" type="ego_type" speed="0.00" pos="299.00" lane="e0_0" slope="0.00"/>
    </timestep>
    <timestep time="62.50">
        <vehicle id="background.0" x="291.00" y="-1.60" angle="90.00" type="human" speed="0.84" pos="291.00" lane="e0_0" slope="0.00"/>
        <vehicle id="background.1" x="131.85" y="-1.60" angle="90.00" type="human" speed="13.45" pos="131.85" lane="e0_0" slope="0.00"/>
        <vehicle id="ego" x="299.00" y="-1.60" angle="90.00" type="ego_type" speed="0.00" pos="299.00" lane="e0_0" slope="0.00"/>
    </timestep>
    <timestep time="63.00">
        <vehicle id="background.0" x="291.21" y="-1.60" angle="90.00" type="human" speed="0.41" pos="291.21" lane="e0_0" slope="0.00"/>
        <vehicle id="background.1" x="138.48" y="-1.60" angle="90.00" type="human" speed="13.28" pos="138.48" lane="e0_0" slope="0.00"/>
        <vehicle id="ego" x="299.00" y="-1.60" angle="90.00" type="ego_type" speed="0.00" pos="299.00" lane="e0_0" slope="0.00"/>
    </timestep>
    <timestep time="63.50">
        <vehicle id="background.0" x="291.35" y="-1.60" angle="90.00" type="human" speed="0.28" pos="291.35" lane="e0_0" slope="0.00"/>
        <vehicle id="background.1" x="145.17" y="-1.60" angle="90.00" type="human" speed="13.37" pos="145.17" lane="e0_0" slope="0.00"/>
        <vehicle id="ego" x="299.00" y="-1.60" angle="90.00" type="ego_type" speed="0.00" pos="299.00" lane="e0_0" slope="0.00"/>
    </timestep>
    <timestep time="64.00">
        <vehicle id="background.0" x="291.41" y="-1.60" angle="90.00" type="human" speed="0.11" pos="291.41" lane="e0_0" slope="0.00"/>
        <vehicle id="background.1" x="151.75" y="-1.60" angle="90.00" type="human" speed="13.15" pos="151.75" lane="e0_0" slope="0.00"/>
        <vehicle id="ego" x="299.00" y="-1.60" angle="90.00" type="ego_type" speed="0.00" pos="299.00" lane="e0_0" slope="0.00"/>
    </timestep>
    <timestep time="64.50">
        <vehicle id="background.0" x="291.44" y="-1.60" angle="90.00" type="human" speed="0.07" pos="291.44" lane="e0_0" slope="0.00"/>
        <vehicle id="background.1" x="158.41" y="-1.60" angle="90.00" type="human" speed="13.32" pos="158.41" lane="e0_0" slope="0.00"/>
        <vehicle id="ego" x="299.00" y="-1.60" angle="90.00" type="ego_type" speed="0.00" pos="299.00" lane="e0_0" slope="0.00"/>
    </timestep>
    <timestep time="65.00">
        <vehicle id="background.0" x="291.47" y="-1.60" angle="90.00" type="human" speed="0.05" pos="291.47" lane="e0_0" slope="0.00"/>
        <vehicle id="background.1" x="165.10" y="-1.60" angle="90.00" type="human" speed="13.38" pos="165.10" lane="e0_0" slope="0.00"/>
        <vehicle id="ego" x="299.00" y="-1.60" angle="90.00" type="ego_type" speed="0.00" pos="299.00" lane="e0_0" slope="0.00"/>
    </timestep>
    <timestep time="65.50">
        <vehicle id="background.0" x="291.48" y="-1.60" angle="90.00" type="human" speed="0.03" pos="291.48" lane="e0_0" slope="0.00"/>
        <vehicle id="background.1" x="171.75" y="-1.60" angle="90.00" type="human" speed="13.30" pos="171.75" lane="e0_0" slope="0.00"/>
        <vehicle id="background.2" x="5.10" y="-1.60" angle="90.00" type="human" speed="13.89" pos="5.10" lane="e0_0" slope="0.00"/>
        <vehicle id="ego" x="299.00" y="-1.60" angle="90.00" type="ego_type" speed="0.00" pos="299.00" lane="e0_0" slope="0.00"/>
    </timestep>
    <timestep time="66.00">
        <vehicle id="background.0" x="291.49" y="-1.60" angle="90.00" type="human" speed="0.01" pos="291.49" lane="e0_0" slope="0.00"/>
        <vehicle id="background.1" x="178.48" y="-1.60" angle="90.00" type="human" speed="13.46" pos="178.48" lane="e0_0" slope="0.00"/>
        <vehicle id="background.2" x="11.88" y="-1.60" angle="90.00" type="human" speed="13.55" pos="11.88" lane="e0_0" slope="0.00"/>
        <vehicle id="ego" x="299.00" y="-1.60" angle="90.00" type="ego_type" speed="0.00" pos="299.00" lane="e0_0" slope="0.00"/>
    </timestep>
    <timestep time="66.50">
        <vehicle id="background.0" x="291.49" y="-1.60" angle="90.00" type="human" speed="0.01" pos="291.49" lane="e0_0" slope="0.00"/>
        <vehicle id="background.1" x="185.07" y="-1.60" angle="90.00" type="human" speed="13.19" pos="185.07" lane="e0_0" slope="0.00"/>
        <vehicle id="background.2" x="18.67" y="-1.60" angle="90.00" type="human" speed="13.58" pos="18.67" lane="e0_0" slope="0.00"/>
        <vehicle id="ego" x="299.00" y="-1.60" angle="90.00" type="ego_type" speed="0.00" pos="299.00" lane="e0_0" slope="0.00"/>
    </timestep>