<?xml version="1.0" encoding="UTF-8"?>

<!-- generated on 2026-05-13 21:24:06 by Eclipse SUMO sumo Version 1.24.0
<sumoConfiguration xmlns:xsi="http://www.w3.org/2001/XMLSchema-instance" xsi:noNamespaceSchemaLocation="http://sumo.dlr.de/xsd/sumoConfiguration.xsd">

    <input>
        <net-file value="scenarios/simple_arterial/simple_arterial.net.xml"/>
        <route-files value="scenarios/simple_arterial/simple_arterial.rou.xml"/>
        <additional-files value="scenarios/simple_arterial/simple_arterial.tls.xml"/>
    </input>

    <output>
        <fcd-output value="runs/fcd_expert_default/episode_00019_seed_61.fcd.xml"/>
    </output>

    <time>
        <begin value="0"/>
        <end value="900"/>
        <step-length value="0.5"/>
    </time>

    <report>
        <no-warnings value="true"/>
    </report>

    <traci_server>
        <remote-port value="23821"/>
    </traci_server>

    <random_number>
        <seed value="61"/>
    </random_number>

</sumoConfiguration>
-->

<fcd-export xmlns:xsi="http://www.w3.org/2001/XMLSchema-instance" xsi:noNamespaceSchemaLocation="http://sumo.dlr.de/xsd/fcd_file.xsd">
    <timestep time="0.00"/>
    <timestep time="0.50"/>
    <timestep time="1.00"/>
    <timestep time="1.50"/>
    <timestep time="2.00"/>
    <timestep time="2.50"/>
    <timestep time="3.00"/>
    <timestep time="3.50"/>
    <timestep time="4.00"/>
    <timestep time="4.50"/>
    <timestep time="5.00">
        <vehicle id="background.0" x="5.10" y="-1.60" angle="90.00" type="human" speed="13.89" pos="5.10" lane="e0_0" slope="0.00"/>
    </timestep>
    <timestep time="5.50">
        <vehicle id="background.0" x="12.04" y="-1.60" angle="90.00" type="human" speed="13.87" pos="12.04" lane="e0_0" slope="0.00"/>
    </timestep>
    <timestep time="6.00">
        <vehicle id="background.0" x="18.85" y="-1.60" angle="90.00" type="human" speed="13.62" pos="18.85" lane="e0_0" slope="0.00"/>
    </timestep>
    <timestep time="6.50">
        <vehicle id="background.0" x="25.67" y="-1.60" angle="90.00" type="human" speed="13.65" pos="25.67" lane="e0_0" slope="0.00"/>
    </timestep>
    <timestep time="7.00">
        <vehicle id="background.0" x="32.50" y="-1.60" angle="90.00" type="human" speed="13.66" pos="32.50" lane="e0_0" slope="0.00"/>
    </timestep>
    <timestep time="7.50">
        <vehicle id="background.0" x="39.23" y="-1.60" angle="90.00" type="human" speed="13.47" pos="39.23" lane="e0_0" slope="0.00"/>
    </timestep>
    <timestep time="8.00">
        <vehicle id="background.0" x="46.06" y="-1.60" angle="90.00" type="human" speed="13.66" pos="46.06" lane="e0_0" slope="0.00"/>
    </timestep>
    <timestep time="8.50">
        <vehicle id="background.0" x="52.90" y="-1.60" angle="90.00" type="human" speed="13.68" pos="52.90" lane="e0_0" slope="0.00"/>
    </timestep>
    <timestep time="9.00">
        <vehicle id="background.0" x="59.67" y="-1.60" angle="90.00" type="human" speed="13.54" pos="59.67" lane="e0_0" slope="0.00"/>
    </timestep>
    <timestep time="9.50">
        <vehicle id="background.0" x="66.46" y="-1.60" angle="90.00" type="human" speed="13.57" pos="66.46" lane="e0_0" slope="0.00"/>
    </timestep>
    <timestep time="10.00">
        <vehicle id="background.0" x="73.18" y="-1.60" angle="90.00" type="human" speed="13.45" pos="73.18" lane="e0_0" slope="0.00"/>
    </timestep>
    <timestep time="10.50">
        <vehicle id="background.0" x="80.06" y="-1.60" angle="90.00" type="human" speed="13.74" pos="80.06" lane="e0_0" slope="0.00"/>
    </timestep>
    <timestep time="11.00">
        <vehicle id="background.0" x="86.93" y="-1.60" angle="90.00" type="human" speed="13.75" pos="86.93" lane="e0_0" slope="0.00"/>
    </timestep>
    <timestep time="11.50">
        <vehicle id="background.0" x="93.74" y="-1.60" angle="90.00" type="human" speed="13.62" pos="93.74" lane="e0_0" slope="0.00"/>
    </timestep>
    <timestep time="12.00">
        <vehicle id="background.0" x="100.55" y="-1.60" angle="90.00" type="human" speed="13.62" pos="100.55" lane="e0_0" slope="0.00"/>
    </timestep>
    <timestep time="12.50">
        <vehicle id="background.0" x="107.44" y="-1.60" angle="90.00" type="human" speed="13.78" pos="107.44" lane="e0_0" slope="0.00"/>
    </timestep>
    <timestep time="13.00">
        <vehicle id="background.0" x="114.29" y="-1.60" angle="90.00" type="human" speed="13.70" pos="114.29" lane="e0_0" slope="0.00"/>
    </timestep>
    <timestep time="13.50">
        <vehicle id="background.0" x="121.17" y="-1.60" angle="90.00" type="human" speed="13.77" pos="121.17" lane="e0_0" slope="0.00"/>
    </timestep>
    <timestep time="14.00">
        <vehicle id="background.0" x="128.11" y="-1.60" angle="90.00" type="human" speed="13.88" pos="128.11" lane="e0_0" slope="0.00"/>
    </timestep>
    <timestep time="14.50">
        <vehicle id="background.0" x="134.82" y="-1.60" angle="90.00" type="human" speed="13.41" pos="134.82" lane="e0_0" slope="0.00"/>
    </timestep>
    <timestep time="15.00">
        <vehicle id="background.0" x="141.75" y="-1.60" angle="90.00" type="human" speed="13.88" pos="141.75" lane="e0_0" slope="0.00"/>
    </timestep>
    <timestep time="15.50">
        <vehicle id="background.0" x="148.54" y="-1.60" angle="90.00" type="human" speed="13.57" pos="148.54" lane="e0_0" slope="0.00"/>
    </timestep>
    <timestep time="16.00">
        <vehicle id="background.0" x="155.25" y="-1.60" angle="90.00" type="human" speed="13.43" pos="155.25" lane="e0_0" slope="0.00"/>
    </timestep>
    <timestep time="16.50">
        <vehicle id="background.0" x="162.19" y="-1.60" angle="90.00" type="human" speed="13.88" pos="162.19" lane="e0_0" slope="0.00"/>
    </timestep>
    <timestep time="17.00">
        <vehicle id="background.0" x="169.00" y="-1.60" angle="90.00" type="human" speed="13.60" pos="169.00" lane="e0_0" slope="0.00"/>
    </timestep>
    <timestep time="17.50">
        <vehicle id="background.0" x="175.69" y="-1.60" angle="90.00" type="human" speed="13.39" pos="175.69" lane="e0_0" slope="0.00"/>
    </timestep>
    <timestep time="18.00">
        <vehicle id="background.0" x="182.59" y="-1.60" angle="90.00" type="human" speed="13.81" pos="182.59" lane="e0_0" slope="0.00"/>
        <vehicle id="background.1" x="5.10" y="-1.60" angle="90.00" type="human" speed="13.89" pos="5.10" lane="e0_0" slope="0.00"/>
    </timestep>
    <timestep time="18.50">
        <vehicle id="background.0" x="189.36" y="-1.60" angle="90.00" type="human" speed="13.52" pos="189.36" lane="e0_0" slope="0.00"/>
        <vehicle id="background.1" x="12.03" y="-1.60" angle="90.00" type="human" speed="13.86" pos="12.03" lane="e0_0" slope="0.00"/>
    </timestep>
    <timestep time="19.00">
        <vehicle id="background.0" x="196.12" y="-1.60" angle="90.00" type="human" speed="13.53" pos="196.12" lane="e0_0" slope="0.00"/>
        <vehicle id="background.1" x="18.76" y="-1.60" angle="90.00" type="human" speed="13.47" pos="18.76" lane="e0_0" slope="0.00"/>
    </timestep>
    <timestep time="19.50">
        <vehicle id="background.0" x="202.96" y="-1.60" angle="90.00" type="human" speed="13.68" pos="202.96" lane="e0_0" slope="0.00"/>
        <vehicle id="background.1" x="25.53" y="-1.60" angle="90.00" type="human" speed="13.54" pos="25.53" lane="e0_0" slope="0.00"/>
    </timestep>
    <timestep time="20.00">
        <vehicle id="background.0" x="209.86" y="-1.60" angle="90.00" type="human" speed="13.79" pos="209.86" lane="e0_0" slope="0.00"/>
        <vehicle id="background.1" x="32.36" y="-1.60" angle="90.00" type="human" speed="13.64" pos="32.36" lane="e0_0" slope="0.00"/>
    </timestep>
    <timestep time="20.50">
        <vehicle id="background.0" x="216.56" y="-1.60" angle="90.00" type="human" speed="13.41" pos="216.56" lane="e0_0" slope="0.00"/>
        <vehicle id="background.1" x="39.16" y="-1.60" angle="90.00" type="human" speed="13.61" pos="39.16" lane="e0_0" slope="0.00"/>
    </timestep>
    <timestep time="21.00">
        <vehicle id="background.0" x="223.45" y="-1.60" angle="90.00" type="human" speed="13.78" pos="223.45" lane="e0_0" slope="0.00"/>
        <vehicle id="background.1" x="46.01" y="-1.60" angle="90.00" type="human" speed="13.70" pos="46.01" lane="e0_0" slope="0.00"/>
    </timestep>
    <timestep time="21.50">
        <vehicle id="background.0" x="230.38" y="-1.60" angle="90.00" type="human" speed="13.87" pos="230.38" lane="e0_0" slope="0.00"/>
        <vehicle id="background.1" x="52.91" y="-1.60" angle="90.00" type="human" speed="13.79" pos="52.91" lane="e0_0" slope="0.00"/>
    </timestep>
    <timestep time="22.00">
        <vehicle id="background.0" x="237.11" y="-1.60" angle="90.00" type="human" speed="13.45" pos="237.11" lane="e0_0" slope="0.00"/>
        <vehicle id="background.1" x="59.67" y="-1.60" angle="90.00" type="human" speed="13.53" pos="59.67" lane="e0_0" slope="0.00"/>
    </timestep>
    <timestep time="22.50">
        <vehicle id="background.0" x="243.83" y="-1.60" angle="90.00" type="human" speed="13.45" pos="243.83" lane="e0_0" slope="0.00"/>
        <vehicle id="background.1" x="66.50" y="-1.60" angle="90.00" type="human" speed="13.65" pos="66.50" lane="e0_0" slope="0.00"/>
    </timestep>
    <timestep time="23.00">
        <vehicle id="background.0" x="250.53" y="-1.60" angle="90.00" type="human" speed="13.41" pos="250.53" lane="e0_0" slope="0.00"/>
        <vehicle id="background.1" x="73.42" y="-1.60" angle="90.00" type="human" speed="13.84" pos="73.42" lane="e0_0" slope="0.00"/>
    </timestep>
    <timestep time="23.50">
        <vehicle id="background.0" x="257.33" y="-1.60" angle="90.00" type="human" speed="13.58" pos="257.33" lane="e0_0" slope="0.00"/>
        <vehicle id="background.1" x="80.29" y="-1.60" angle="90.00" type="human" speed="13.75" pos="80.29" lane="e0_0" slope="0.00"/>
    </timestep>
    <timestep time="24.00">
        <vehicle id="background.0" x="264.02" y="-1.60" angle="90.00" type="human" speed="13.40" pos="264.02" lane="e0_0" slope="0.00"/>
        <vehicle id="background.1" x="87.03" y="-1.60" angle="90.00" type="human" speed="13.47" pos="87.03" lane="e0_0" slope="0.00"/>
    </timestep>
    <timestep time="24.50">
        <vehicle id="background.0" x="270.87" y="-1.60" angle="90.00" type="human" speed="13.69" pos="270.87" lane="e0_0" slope="0.00"/>
        <vehicle id="background.1" x="93.93" y="-1.60" angle="90.00" type="human" speed="13.82" pos="93.93" lane="e0_0" slope="0.00"/>
    </timestep>
    <timestep time="25.00">
        <vehicle id="background.0" x="277.77" y="-1.60" angle="90.00" type="human" speed="13.81" pos="277.77" lane="e0_0" slope="0.00"/>
        <vehicle id="background.1" x="100.81" y="-1.60" angle="90.00" type="human" speed="13.75" pos="100.81" lane="e0_0" slope="0.00"/>
    </timestep>
    <timestep time="25.50">
        <vehicle id="background.0" x="284.57" y="-1.60" angle="90.00" type="human" speed="13.60" pos="284.57" lane="e0_0" slope="0.00"/>
        <vehicle id="background.1" x="107.62" y="-1.60" angle="90.00" type="human" speed="13.62" pos="107.62" lane="e0_0" slope="0.00"/>
    </timestep>
    <timestep time="26.00">
        <vehicle id="background.0" x="291.42" y="-1.60" angle="90.00" type="human" speed="13.70" pos="291.42" lane="e0_0" slope="0.00"/>
        <vehicle id="background.1" x="114.54" y="-1.60" angle="90.00" type="human" speed="13.85" pos="114.54" lane="e0_0" slope="0.00"/>
    </timestep>
    <timestep time="26.50">
        <vehicle id="background.0" x="298.29" y="-1.60" angle="90.00" type="human" speed="13.74" pos="298.29" lane="e0_0" slope="0.00"/>
        <vehicle id="background.1" x="121.45" y="-1.60" angle="90.00" type="human" speed="13.82" pos="121.45" lane="e0_0" slope="0.00"/>
    </timestep>
    <timestep time="27.00">
        <vehicle id="background.0" x="305.13" y="-1.60" angle="90.00" type="human" speed="13.88" pos="5.13" lane="e1_0" slope="0.00"/>
        <vehicle id="background.1" x="128.21" y="-1.60" angle="90.00" type="human" speed="13.51" pos="128.21" lane="e0_0" slope="0.00"/>
    </timestep>
    <timestep time="27.50">
        <vehicle id="background.0" x="311.94" y="-1.60" angle="90.00" type="human" speed="13.61" pos="11.94" lane="e1_0" slope="0.00"/>
        <vehicle id="background.1" x="135.04" y="-1.60" angle="90.00" type="human" speed="13.66" pos="135.04" lane="e0_0" slope="0.00"/>
    </timestep>
    <timestep time="28.00">
        <vehicle id="background.0" x="318.76" y="-1.60" angle="90.00" type="human" speed="13.65" pos="18.76" lane="e1_0" slope="0.00"/>
        <vehicle id="background.1" x="141.81" y="-1.60" angle="90.00" type="human" speed="13.54" pos="141.81" lane="e0_0" slope="0.00"/>
    </timestep>
    <timestep time="28.50">
        <vehicle id="background.0" x="325.61" y="-1.60" angle="90.00" type="human" speed="13.69" pos="25.61" lane="e1_0" slope="0.00"/>
        <vehicle id="background.1" x="148.53" y="-1.60" angle="90.00" type="human" speed="13.43" pos="148.53" lane="e0_0" slope="0.00"/>
    </timestep>
    <timestep time="29.00">
        <vehicle id="background.0" x="332.55" y="-1.60" angle="90.00" type="human" speed="13.88" pos="32.55" lane="e1_0" slope="0.00"/>
        <vehicle id="background.1" x="155.38" y="-1.60" angle="90.00" type="human" speed="13.70" pos="155.38" lane="e0_0" slope="0.00"/>
    </timestep>
    <timestep time="29.50">
        <vehicle id="background.0" x="339.48" y="-1.60" angle="90.00" type="human" speed="13.87" pos="39.48" lane="e1_0" slope="0.00"/>
        <vehicle id="background.1" x="162.30" y="-1.60" angle="90.00" type="human" speed="13.84" pos="162.30" lane="e0_0" slope="0.00"/>
    </timestep>
    <timestep time="30.00">
        <vehicle id="background.0" x="346.41" y="-1.60" angle="90.00" type="human" speed="13.85" pos="46.41" lane="e1_0" slope="0.00"/>
        <vehicle id="background.1" x="169.01" y="-1.60" angle="90.00" type="human" speed="13.43" pos="169.01" lane="e0_0" slope="0.00"/>
    </timestep>
    <timestep time="30.50">
        <vehicle id="background.1" x="175.85" y="-1.60" angle="90.00" type="human" speed="13.68" pos="175.85" lane="e0_0" slope="0.00"/>
    </timestep>
    <timestep time="31.00">
        <vehicle id="background.1" x="182.72" y="-1.60" angle="90.00" type="human" speed="13.74" pos="182.72" lane="e0_0" slope="0.00"/>
    </timestep>
    <timestep time="31.50">
        <vehicle id="background.1" x="189.63" y="-1.60" angle="90.00" type="human" speed="13.82" pos="189.63" lane="e0_0" slope="0.00"/>
    </timestep>
    <timestep time="32.00">
        <vehicle id="background.1" x="196.52" y="-1.60" angle="90.00" type="human" speed="13.76" pos="196.52" lane="e0_0" slope="0.00"/>
    </timestep>
    <timestep time="32.50">
        <vehicle id="background.1" x="203.43" y="-1.60" angle="90.00" type="human" speed="13.83" pos="203.43" lane="e0_0" slope="0.00"/>
    </timestep>
    <timestep time="33.00">
        <vehicle id="background.1" x="210.13" y="-1.60" angle="90.00" type="human" speed="13.40" pos="210.13" lane="e0_0" slope="0.00"/>
    </timestep>
    <timestep time="33.50">
        <vehicle id="background.1" x="216.85" y="-1.60" angle="90.00" type="human" speed="13.43" pos="216.85" lane="e0_0" slope="0.00"/>
    </timestep>
    <timestep time="34.00">
        <vehicle id="background.1" x="223.74" y="-1.60" angle="90.00" type="human" speed="13.80" pos="223.74" lane="e0_0" slope="0.00"/>
        <vehicle id="ego" x="5.10" y="-1.60" angle="90.00" type="ego_type" speed="0.00" pos="5.10" lane="e0_0" slope="0.00"/>
    </timestep>
    <timestep time="34.50">
        <vehicle id="background.1" x="230.54" y="-1.60" angle="90.00" type="human" speed="13.58" pos="230.54" lane="e0_0" slope="0.00"/>
        <vehicle id="ego" x="5.60" y="-1.60" angle="90.00" type="ego_type" speed="1.00" pos="5.60" lane="e0_0" slope="0.00"/>
    </timestep>
    <timestep time="35.00">
        <vehicle id="background.1" x="237.41" y="-1.60" angle="90.00" type="human" speed="13.75" pos="237.41" lane="e0_0" slope="0.00"/>
        <vehicle id="ego" x="6.60" y="-1.60" angle="90.00" type="ego_type" speed="2.00" pos="6.60" lane="e0_0" slope="0.00"/>
    </timestep>
    <timestep time="35.50">
        <vehicle id="background.1" x="244.17" y="-1.60" angle="90.00" type="human" speed="13.52" pos="244.17" lane="e0_0" slope="0.00"/>
        <vehicle id="ego" x="8.10" y="-1.60" angle="90.00" type="ego_type" speed="3.00" pos="8.10" lane="e0_0" slope="0.00"/>
    </timestep>
    <timestep time="36.00">
        <vehicle id="background.1" x="251.07" y="-1.60" angle="90.00" type="human" speed="13.80" pos="251.07" lane="e0_0" slope="0.00"/>
        <vehicle id="ego" x="10.10" y="-1.60" angle="90.00" type="ego_type" speed="4.00" pos="10.10" lane="e0_0" slope="0.00"/>
    </timestep>
    <timestep time="36.50">
        <vehicle id="background.1" x="257.95" y="-1.60" angle="90.00" type="human" speed="13.75" pos="257.95" lane="e0_0" slope="0.00"/>
        <vehicle id="ego" x="12.60" y="-1.60" angle="90.00" type="ego_type" speed="5.00" pos="12.60" lane="e0_0" slope="0.00"/>
    </timestep>
    <timestep time="37.00">
        <vehicle id="background.1" x="264.82" y="-1.60" angle="90.00" type="human" speed="13.74" pos="264.82" lane="e0_0" slope="0.00"/>
        <vehicle id="ego" x="15.60" y="-1.60" angle="90.00" type="ego_type" speed="6.00" pos="15.60" lane="e0_0" slope="0.00"/>
    </timestep>
    <timestep time="37.50">
        <vehicle id="background.1" x="271.63" y="-1.60" angle="90.00" type="human" speed="13.63" pos="271.63" lane="e0_0" slope="0.00"/>
        <vehicle id="ego" x="19.10" y="-1.60" angle="90.00" type="ego_type" speed="7.00" pos="19.10" lane="e0_0" slope="0.00"/>
    </timestep>
    <timestep time="38.00">
        <vehicle id="background.1" x="278.48" y="-1.60" angle="90.00" type="human" speed="13.70" pos="278.48" lane="e0_0" slope="0.00"/>
        <vehicle id="ego" x="23.10" y="-1.60" angle="90.00" type="ego_type" speed="8.00" pos="23.10" lane="e0_0" slope="0.00"/>
    </timestep>
    <timestep time="38.50">
        <vehicle id="background.1" x="285.37" y="-1.60" angle="90.00" type="human" speed="13.77" pos="285.37" lane="e0_0" slope="0.00"/>
        <vehicle id="ego" x="27.60" y="-1.60" angle="90.00" type="ego_type" speed="9.00" pos="27.60" lane="e0_0" slope="0.00"/>
    </timestep>
    <timestep time="39.00">
        <vehicle id="background.1" x="292.11" y="-1.60" angle="90.00" type="human" speed="13.49" pos="292.11" lane="e0_0" slope="0.00"/>
        <vehicle id="ego" x="32.60" y="-1.60" angle="90.00" type="ego_type" speed="10.00" pos="32.60" lane="e0_0" slope="0.00"/>
    </timestep>
    <timestep time="39.50">
        <vehicle id="background.1" x="298.88" y="-1.60" angle="90.00" type="human" speed="13.54" pos="298.88" lane="e0_0" slope="0.00"/>
        <vehicle id="ego" x="38.10" y="-1.60" angle="90.00" type="ego_type" speed="11.00" pos="38.10" lane="e0_0" slope="0.00"/>
    </timestep>
    <timestep time="40.00">
        <vehicle id="background.1" x="305.51" y="-1.60" angle="90.00" type="human" speed="13.47" pos="5.51" lane="e1_0" slope="0.00"/>
        <vehicle id="ego" x="44.10" y="-1.60" angle="90.00" type="ego_type" speed="12.00" pos="44.10" lane="e0_0" slope="0.00"/>
    </timestep>
    <timestep time="40.50">
        <vehicle id="background.1" x="312.25" y="-1.60" angle="90.00" type="human" speed="13.48" pos="12.25" lane="e1_0" slope="0.00"/>
        <vehicle id="ego" x="50.60" y="-1.60" angle="90.00" type="ego_type" speed="13.00" pos="50.60" lane="e0_0" slope="0.00"/>
    </timestep>
    <timestep time="41.00">
        <vehicle id="background.1" x="319.16" y="-1.60" angle="90.00" type="human" speed="13.81" pos="19.16" lane="e1_0" slope="0.00"/>
        <vehicle id="ego" x="57.55" y="-1.60" angle="90.00" type="ego_type" speed="13.89" pos="57.55" lane="e0_0" slope="0.00"/>
    </timestep>
    <timestep time="41.50">
        <vehicle id="background.1" x="325.92" y="-1.60" angle="90.00" type="human" speed="13.52" pos="25.92" lane="e1_0" slope="0.00"/>
        <vehicle id="ego" x="64.49" y="-1.60" angle="90.00" type="ego_type" speed="13.89" pos="64.49" lane="e0_0" slope="0.00"/>
    </timestep>
    <timestep time="42.00">
        <vehicle id="background.1" x="332.74" y="-1.60" angle="90.00" type="human" speed="13.64" pos="32.74" lane="e1_0" slope="0.00"/>
        <vehicle id="ego" x="71.44" y="-1.60" angle="90.00" type="ego_type" speed="13.89" pos="71.44" lane="e0_0" slope="0.00"/>
    </timestep>
    <timestep time="42.50">
        <vehicle id="background.1" x="339.49" y="-1.60" angle="90.00" type="human" speed="13.50" pos="39.49" lane="e1_0" slope="0.00"/>
        <vehicle id="ego" x="78.38" y="-1.60" angle="90.00" type="ego_type" speed="13.89" pos="78.38" lane="e0_0" slope="0.00"/>
    </timestep>
    <timestep time="43.00">
        <vehicle id="background.1" x="346.37" y="-1.60" angle="90.00" type="human" speed="13.76" pos="46.37" lane="e1_0" slope="0.00"/>
        <vehicle id="ego" x="85.32" y="-1.60" angle="90.00" type="ego_type" speed="13.89" pos="85.32" lane="e0_0" slope="0.00"/>
    </timestep>
    <timestep time="43.50">
        <vehicle id="ego" x="92.27" y="-1.60" angle="90.00" type="ego_type" speed="13.89" pos="92.27" lane="e0_0" slope="0.00"/>
    </timestep>
    <timestep time="44.00">
        <vehicle id="ego" x="99.21" y="-1.60" angle="90.00" type="ego_type" speed="13.89" pos="99.21" lane="e0_0" slope="0.00"/>
    </timestep>
    <timestep time="44.50">
        <vehicle id="ego" x="106.16" y="-1.60" angle="90.00" type="ego_type" speed="13.89" pos="106.16" lane="e0_0" slope="0.00"/>
    </timestep>
    <timestep time="45.00">
        <vehicle id="ego" x="113.10" y="-1.60" angle="90.00" type="ego_type" speed="13.89" pos="113.10" lane="e0_0" slope="0.00"/>
    </timestep>
    <timestep time="45.50">
        <vehicle id="ego" x="120.05" y="-1.60" angle="90.00" type="ego_type" speed="13.89" pos="120.05" lane="e0_0" slope="0.00"/>
    </timestep>
    <timestep time="46.00">
        <vehicle id="ego" x="126.99" y="-1.60" angle="90.00" type="ego_type" speed="13.89" pos="126.99" lane="e0_0" slope="0.00"/>
    </timestep>
    <timestep time="46.50">
        <vehicle id="ego" x="133.94" y="-1.60" angle="90.00" type="ego_type" speed="13.89" pos="133.94" lane="e0_0" slope="0.00"/>
    </timestep>
    <timestep time="47.00">
        <vehicle id="ego" x="140.88" y="-1.60" angle="90.00" type="ego_type" speed="13.89" pos="140.88" lane="e0_0" slope="0.00"/>
    </timestep>
    <timestep time="47.50">
        <vehicle id="ego" x="147.83" y="-1.60" angle="90.00" type="ego_type" speed="13.89" pos="147.83" lane="e0_0" slope="0.00"/>
    </timestep>
    <timestep time="48.00">
        <vehicle id="ego" x="154.77" y="-1.60" angle="90.00" type="ego_type" speed="13.89" pos="154.77" lane="e0_0" slope="0.00"/>
    </timestep>
    <timestep time="48.50">
        <vehicle id="ego" x="161.72" y="-1.60" angle="90.00" type="ego_type" speed="13.89" pos="161.72" lane="e0_0" slope="0.00"/>
    </timestep>
    <timestep time="49.00">
        <vehicle id="ego" x="168.66" y="-1.60" angle="90.00" type="ego_type" speed="13.89" pos="168.66" lane="e0_0" slope="0.00"/>
    </timestep>
    <timestep time="49.50">
        <vehicle id="ego" x="175.61" y="-1.60" angle="90.00" type="ego_type" speed="13.89" pos="175.61" lane="e0_0" slope="0.00"/>
    </timestep>
    <timestep time="50.00">
        <vehicle id="background.2" x="5.10" y="-1.60" angle="90.00" type="human" speed="13.59" pos="5.10" lane="e0_0" slope="0.00"/>
        <vehicle id="ego" x="182.55" y="-1.60" angle="90.00" type="ego_type" speed="13.89" pos="182.55" lane="e0_0" slope="0.00"/>
    </timestep>
    <timestep time="50.50">
        <vehicle id="background.2" x="11.81" y="-1.60" angle="90.00" type="human" speed="13.41" pos="11.81" lane="e0_0" slope="0.00"/>
        <vehicle id="ego" x="189.50" y="-1.60" angle="90.00" type="ego_type" speed="13.89" pos="189.50" lane="e0_0" slope="0.00"/>
    </timestep>
    <timestep time="51.00">
        <vehicle id="background.2" x="18.43" y="-1.60" angle="90.00" type="human" speed="13.24" pos="18.43" lane="e0_0" slope="0.00"/>
        <vehicle id="ego" x="196.44" y="-1.60" angle="90.00" type="ego_type" speed="13.89" pos="196.44" lane="e0_0" slope="0.00"/>
    </timestep>
    <timestep time="51.50">
        <vehicle id="background.2" x="25.22" y="-1.60" angle="90.00" type="human" speed="13.58" pos="25.22" lane="e0_0" slope="0.00"/>
        <vehicle id="ego" x="203.39" y="-1.60" angle="90.00" type="ego_type" speed="13.89" pos="203.39" lane="e0_0" slope="0.00"/>
    </timestep>
    <timestep time="52.00">
        <vehicle id="background.2" x="31.95" y="-1.60" angle="90.00" type="human" speed="13.48" pos="31.95" lane="e0_0" slope="0.00"/>
        <vehicle id="ego" x="210.33" y="-1.60" angle="90.00" type="ego_type" speed="13.89" pos="210.33" lane="e0_0" slope="0.00"/>
    </timestep>
    <timestep time="52.50">
        <vehicle id="background.2" x="38.65" y="-1.60" angle="90.00" type="human" speed="13.40" pos="38.65" lane="e0_0" slope="0.00"/>
        <vehicle id="ego" x="217.28" y="-1.60" angle="90.00" type="ego_type" speed="13.89" pos="217.28" lane="e0_0" slope="0.00"/>
    </timestep>
    <timestep time="53.00">
        <vehicle id="background.2" x="45.20" y="-1.60" angle="90.00" type="human" speed="13.10" pos="45.20" lane="e0_0" slope="0.00"/>
        <vehicle id="ego" x="224.22" y="-1.60" angle="90.00" type="ego_type" speed="13.89" pos="224.22" lane="e0_0" slope="0.00"/>
    </timestep>
    <timestep time="53.50">
        <vehicle id="background.2" x="51.96" y="-1.60" angle="90.00" type="human" speed="13.50" pos="51.96" lane="e0_0" slope="0.00"/>
        <vehicle id="ego" x="231.17" y="-1.60" angle="90.00" type="ego_type" speed="13.89" pos="231.17" lane="e0_0" slope="0.00"/>
    </timestep>
    <timestep time="54.00">
        <vehicle id="background.2" x="58.67" y="-1.60" angle="90.00" type="human" speed="13.43" pos="58.67" lane="e0_0" slope="0.00"/>
        <vehicle id="ego" x="238.11" y="-1.60" angle="90.00" type="ego_type" speed="13.89" pos="238.11" lane="e0_0" slope="0.00"/>
    </timestep>
    <timestep time="54.50">
        <vehicle id="background.2" x="65.29" y="-1.60" angle="90.00" type="human" speed="13.24" pos="65.29" lane="e0_0" slope="0.00"/>
        <vehicle id="ego" x="245.06" y="-1.60" angle="90.00" type="ego_type" speed="13.89" pos="245.06" lane="e0_0" slope="0.00"/>
    </timestep>
    <timestep time="55.00">
        <vehicle id="background.2" x="71.97" y="-1.60" angle="90.00" type="human" speed="13.37" pos="71.97" lane="e0_0" slope="0.00"/>
        <vehicle id="ego" x="252.00" y="-1.60" angle="90.00" type="ego_type" speed="13.89" pos="252.00" lane="e0_0" slope="0.00"/>
    </timestep>
    <timestep time="55.50">
        <vehicle id="background.2" x="78.66" y="-1.60" angle="90.00" type="human" speed="13.38" pos="78.66" lane="e0_0" slope="0.00"/>
        <vehicle id="ego" x="258.95" y="-1.60" angle="90.00" type="ego_type" speed="13.89" pos="258.95" lane="e0_0" slope="0.00"/>
    </timestep>
    <timestep time="56.00">
        <vehicle id="background.2" x="85.38" y="-1.60" angle="90.00" type="human" speed="13.43" pos="85.38" lane="e0_0" slope="0.00"/>
        <vehicle id="ego" x="265.89" y="-1.60" angle="90.00" type="ego_type" speed="13.89" pos="265.89" lane="e0_0" slope="0.00"/>
    </timestep>
    <timestep time="56.50">
        <vehicle id="background.2" x="92.16" y="-1.60" angle="90.00" type="human" speed="13.57" pos="92.16" lane="e0_0" slope="0.00"/>
        <vehicle id="ego" x="272.84" y="-1.60" angle="90.00" type="ego_type" speed="13.89" pos="272.84" lane="e0_0" slope="0.00"/>
    </timestep>
    <timestep time="57.00">
        <vehicle id="background.2" x="98.92" y="-1.60" angle="90.00" type="human" speed="13.51" pos="98.92" lane="e0_0" slope="0.00"/>
        <vehicle id="ego" x="279.78" y="-1.60" angle="90.00" type="ego_type" speed="13.89" pos="279.78" lane="e0_0" slope="0.00"/>
    </timestep>
    <timestep time="57.50">
        <vehicle id="background.2" x="105.65" y="-1.60" angle="90.00" type="human" speed="13.47" pos="105.65" lane="e0_0" slope="0.00"/>
        <vehicle id="ego" x="285.80" y="-1.60" angle="90.00" type="ego_type" speed="12.03" pos="285.80" lane="e0_0" slope="0.00"/>
    </timestep>
    <timestep time="58.00">
        <vehicle id="background.2" x="112.39" y="-1.60" angle="90.00" type="human" speed="13.49" pos="112.39" lane="e0_0" slope="0.00"/>
        <vehicle id="ego" x="290.69" y="-1.60" angle="90.00" type="ego_type" speed="9.78" pos="290.69" lane="e0_0" slope="0.00"/>
    </timestep>
    <timestep time="58.50">
        <vehicle id="background.2" x="119.09" y="-1.60" angle="90.00" type="human" speed="13.40" pos="119.09" lane="e0_0" slope="0.00"/>
        <vehicle id="ego" x="294.45" y="-1.60" angle="90.00" type="ego_type" speed="7.53" pos="294.45" lane="e0_0" slope="0.00"/>
    </timestep>
    <timestep time="59.00">
        <vehicle id="background.2" x="125.65" y="-1.60" angle="90.00" type="human" speed="13.13" pos="125.65" lane="e0_0" slope="0.00"/>
        <vehicle id="ego" x="297.09" y="-1.60" angle="90.00" type="ego_type" speed="5.28" pos="297.09" lane="e0_0" slope="0.00"/>
    </timestep>
    <timestep time="59.50">
        <vehicle id="background.2" x="132.45" y="-1.60" angle="90.00" type="human" speed="13.58" pos="132.45" lane="e0_0" slope="0.00"/>
        <vehicle id="ego" x="298.61" y="-1.60" angle="90.00" type="ego_type" speed="3.03" pos="298.61" lane="e0_0" slope="0.00"/>
    </timestep>
    <timestep time="60.00">
        <vehicle id="background.2" x="139.07" y="-1.60" angle="90.00" type="human" speed="13.24" pos="139.07" lane="e0_0" slope="0.00"/>
        <vehicle id="ego" x="299.00" y="-1.60" angle="90.00" type="ego_type" speed="0.78" pos="299.00" lane="e0_0" slope="0.00"/>
    </timestep>
    <timestep time="60.50">