<?xml version="1.0" encoding="UTF-8"?>

<!-- generated on 2026-05-14 17:05:05 by Eclipse SUMO sumo Version 1.24.0
<sumoConfiguration xmlns:xsi="http://www.w3.org/2001/XMLSchema-instance" xsi:noNamespaceSchemaLocation="http://sumo.dlr.de/xsd/sumoConfiguration.xsd">

    <input>
        <net-file value="scenarios/simple_arterial/simple_arterial.net.xml"/>
        <route-files value="scenarios/simple_arterial/simple_arterial.rou.xml"/>
        <additional-files value="scenarios/simple_arterial/simple_arterial.tls.xml"/>
    </input>

    <output>
        <fcd-output value="runs/fcd_expert_default/episode_00067_seed_109.fcd.xml"/>
    </output>

    <time>
        <begin value="0"/>
        <end value="900"/>
        <step-length value="0.5"/>
    </time>

    <report>
        <no-warnings value="true"/>
    </report>

    <traci_server>
        <remote-port value="24542"/>
    </traci_server>

    <random_number>
        <seed value="109"/>
    </random_number>

</sumoConfiguration>
-->

<fcd-export xmlns:xsi="http://www.w3.org/2001/XMLSchema-instance" xsi:noNamespaceSchemaLocation="http://sumo.dlr.de/xsd/fcd_file.xsd">
    <timestep time="0.00"/>
    <timestep time="0.50"/>
    <timestep time="1.00"/>
    <timestep time="1.50"/>
    <timestep time="2.00"/>
    <timestep time="2.50"/>
    <timestep time="3.00"/>
    <timestep time="3.50"/>
    <timestep time="4.00"/>
    <timestep time="4.50"/>
    <timestep time="5.00"/>
    <timestep time="5.50"/>
    <timestep time="6.00"/>
    <timestep time="6.50"/>
    <timestep time="7.00"/>
    <timestep time="7.50"/>
    <timestep time="8.00"/>
    <timestep time="8.50"/>
    <timestep time="9.00"/>
    <timestep time="9.50"/>
    <timestep time="10.00"/>
    <timestep time="10.50">
        <vehicle id="background.0" x="5.10" y="-1.60" angle="90.00" type="human" speed="13.89" pos="5.10" lane="e0_0" slope="0.00"/>
    </timestep>
    <timestep time="11.00">
        <vehicle id="background.0" x="12.02" y="-1.60" angle="90.00" type="human" speed="13.83" pos="12.02" lane="e0_0" slope="0.00"/>
    </timestep>
    <timestep time="11.50">
        <vehicle id="background.0" x="18.76" y="-1.60" angle="90.00" type="human" speed="13.48" pos="18.76" lane="e0_0" slope="0.00"/>
    </timestep>
    <timestep time="12.00">
        <vehicle id="background.0" x="25.54" y="-1.60" angle="90.00" type="human" speed="13.56" pos="25.54" lane="e0_0" slope="0.00"/>
    </timestep>
    <timestep time="12.50">
        <vehicle id="background.0" x="32.40" y="-1.60" angle="90.00" type="human" speed="13.73" pos="32.40" lane="e0_0" slope="0.00"/>
    </timestep>
    <timestep time="13.00">
        <vehicle id="background.0" x="39.25" y="-1.60" angle="90.00" type="human" speed="13.70" pos="39.25" lane="e0_0" slope="0.00"/>
    </timestep>
    <timestep time="13.50">
        <vehicle id="background.0" x="45.96" y="-1.60" angle="90.00" type="human" speed="13.41" pos="45.96" lane="e0_0" slope="0.00"/>
    </timestep>
    <timestep time="14.00">
        <vehicle id="background.0" x="52.75" y="-1.60" angle="90.00" type="human" speed="13.58" pos="52.75" lane="e0_0" slope="0.00"/>
    </timestep>
    <timestep time="14.50">
        <vehicle id="background.0" x="59.48" y="-1.60" angle="90.00" type="human" speed="13.46" pos="59.48" lane="e0_0" slope="0.00"/>
    </timestep>
    <timestep time="15.00">
        <vehicle id="background.0" x="66.26" y="-1.60" angle="90.00" type="human" speed="13.55" pos="66.26" lane="e0_0" slope="0.00"/>
    </timestep>
    <timestep time="15.50">
        <vehicle id="background.0" x="73.16" y="-1.60" angle="90.00" type="human" speed="13.81" pos="73.16" lane="e0_0" slope="0.00"/>
    </timestep>
    <timestep time="16.00">
        <vehicle id="background.0" x="79.94" y="-1.60" angle="90.00" type="human" speed="13.55" pos="79.94" lane="e0_0" slope="0.00"/>
    </timestep>
    <timestep time="16.50">
        <vehicle id="background.0" x="86.72" y="-1.60" angle="90.00" type="human" speed="13.57" pos="86.72" lane="e0_0" slope="0.00"/>
    </timestep>
    <timestep time="17.00">
        <vehicle id="background.0" x="93.43" y="-1.60" angle="90.00" type="human" speed="13.41" pos="93.43" lane="e0_0" slope="0.00"/>
    </timestep>
    <timestep time="17.50">
        <vehicle id="background.0" x="100.15" y="-1.60" angle="90.00" type="human" speed="13.45" pos="100.15" lane="e0_0" slope="0.00"/>
    </timestep>
    <timestep time="18.00">
        <vehicle id="background.0" x="106.94" y="-1.60" angle="90.00" type="human" speed="13.57" pos="106.94" lane="e0_0" slope="0.00"/>
    </timestep>
    <timestep time="18.50">
        <vehicle id="background.0" x="113.84" y="-1.60" angle="90.00" type="human" speed="13.81" pos="113.84" lane="e0_0" slope="0.00"/>
    </timestep>
    <timestep time="19.00">
        <vehicle id="background.0" x="120.66" y="-1.60" angle="90.00" type="human" speed="13.63" pos="120.66" lane="e0_0" slope="0.00"/>
        <vehicle id="background.1" x="5.10" y="-1.60" angle="90.00" type="human" speed="8.42" pos="5.10" lane="e0_0" slope="0.00"/>
    </timestep>
    <timestep time="19.50">
        <vehicle id="background.0" x="127.45" y="-1.60" angle="90.00" type="human" speed="13.58" pos="127.45" lane="e0_0" slope="0.00"/>
        <vehicle id="background.1" x="9.29" y="-1.60" angle="90.00" type="human" speed="8.38" pos="9.29" lane="e0_0" slope="0.00"/>
    </timestep>
    <timestep time="20.00">
        <vehicle id="background.0" x="134.38" y="-1.60" angle="90.00" type="human" speed="13.86" pos="134.38" lane="e0_0" slope="0.00"/>
        <vehicle id="background.1" x="13.40" y="-1.60" angle="90.00" type="human" speed="8.23" pos="13.40" lane="e0_0" slope="0.00"/>
    </timestep>
    <timestep time="20.50">
        <vehicle id="background.0" x="141.20" y="-1.60" angle="90.00" type="human" speed="13.64" pos="141.20" lane="e0_0" slope="0.00"/>
        <vehicle id="background.1" x="17.54" y="-1.60" angle="90.00" type="human" speed="8.27" pos="17.54" lane="e0_0" slope="0.00"/>
    </timestep>
    <timestep time="21.00">
        <vehicle id="background.0" x="148.09" y="-1.60" angle="90.00" type="human" speed="13.78" pos="148.09" lane="e0_0" slope="0.00"/>
        <vehicle id="background.1" x="21.72" y="-1.60" angle="90.00" type="human" speed="8.35" pos="21.72" lane="e0_0" slope="0.00"/>
    </timestep>
    <timestep time="21.50">
        <vehicle id="background.0" x="154.79" y="-1.60" angle="90.00" type="human" speed="13.41" pos="154.79" lane="e0_0" slope="0.00"/>
        <vehicle id="background.1" x="25.92" y="-1.60" angle="90.00" type="human" speed="8.42" pos="25.92" lane="e0_0" slope="0.00"/>
    </timestep>
    <timestep time="22.00">
        <vehicle id="background.0" x="161.58" y="-1.60" angle="90.00" type="human" speed="13.58" pos="161.58" lane="e0_0" slope="0.00"/>
        <vehicle id="background.1" x="30.03" y="-1.60" angle="90.00" type="human" speed="8.21" pos="30.03" lane="e0_0" slope="0.00"/>
    </timestep>
    <timestep time="22.50">
        <vehicle id="background.0" x="168.48" y="-1.60" angle="90.00" type="human" speed="13.81" pos="168.48" lane="e0_0" slope="0.00"/>
        <vehicle id="background.1" x="34.12" y="-1.60" angle="90.00" type="human" speed="8.17" pos="34.12" lane="e0_0" slope="0.00"/>
    </timestep>
    <timestep time="23.00">
        <vehicle id="background.0" x="175.35" y="-1.60" angle="90.00" type="human" speed="13.72" pos="175.35" lane="e0_0" slope="0.00"/>
        <vehicle id="background.1" x="38.32" y="-1.60" angle="90.00" type="human" speed="8.41" pos="38.32" lane="e0_0" slope="0.00"/>
        <vehicle id="background.2" x="5.10" y="-1.60" angle="90.00" type="human" speed="13.80" pos="5.10" lane="e0_0" slope="0.00"/>
    </timestep>
    <timestep time="23.50">
        <vehicle id="background.0" x="182.28" y="-1.60" angle="90.00" type="human" speed="13.87" pos="182.28" lane="e0_0" slope="0.00"/>
        <vehicle id="background.1" x="42.39" y="-1.60" angle="90.00" type="human" speed="8.14" pos="42.39" lane="e0_0" slope="0.00"/>
        <vehicle id="background.2" x="11.92" y="-1.60" angle="90.00" type="human" speed="13.64" pos="11.92" lane="e0_0" slope="0.00"/>
    </timestep>
    <timestep time="24.00">
        <vehicle id="background.0" x="189.21" y="-1.60" angle="90.00" type="human" speed="13.85" pos="189.21" lane="e0_0" slope="0.00"/>
        <vehicle id="background.1" x="46.50" y="-1.60" angle="90.00" type="human" speed="8.22" pos="46.50" lane="e0_0" slope="0.00"/>
        <vehicle id="background.2" x="18.29" y="-1.60" angle="90.00" type="human" speed="12.74" pos="18.29" lane="e0_0" slope="0.00"/>
    </timestep>
    <timestep time="24.50">
        <vehicle id="background.0" x="196.01" y="-1.60" angle="90.00" type="human" speed="13.61" pos="196.01" lane="e0_0" slope="0.00"/>
        <vehicle id="background.1" x="50.63" y="-1.60" angle="90.00" type="human" speed="8.26" pos="50.63" lane="e0_0" slope="0.00"/>
        <vehicle id="background.2" x="24.44" y="-1.60" angle="90.00" type="human" speed="12.31" pos="24.44" lane="e0_0" slope="0.00"/>
    </timestep>
    <timestep time="25.00">
        <vehicle id="background.0" x="202.76" y="-1.60" angle="90.00" type="human" speed="13.50" pos="202.76" lane="e0_0" slope="0.00"/>
        <vehicle id="background.1" x="54.64" y="-1.60" angle="90.00" type="human" speed="8.01" pos="54.64" lane="e0_0" slope="0.00"/>
        <vehicle id="background.2" x="30.18" y="-1.60" angle="90.00" type="human" speed="11.47" pos="30.18" lane="e0_0" slope="0.00"/>
    </timestep>
    <timestep time="25.50">
        <vehicle id="background.0" x="209.63" y="-1.60" angle="90.00" type="human" speed="13.73" pos="209.63" lane="e0_0" slope="0.00"/>
        <vehicle id="background.1" x="58.74" y="-1.60" angle="90.00" type="human" speed="8.21" pos="58.74" lane="e0_0" slope="0.00"/>
        <vehicle id="background.2" x="35.69" y="-1.60" angle="90.00" type="human" speed="11.01" pos="35.69" lane="e0_0" slope="0.00"/>
    </timestep>
    <timestep time="26.00">
        <vehicle id="background.0" x="216.49" y="-1.60" angle="90.00" type="human" speed="13.72" pos="216.49" lane="e0_0" slope="0.00"/>
        <vehicle id="background.1" x="62.72" y="-1.60" angle="90.00" type="human" speed="7.95" pos="62.72" lane="e0_0" slope="0.00"/>
        <vehicle id="background.2" x="41.08" y="-1.60" angle="90.00" type="human" speed="10.78" pos="41.08" lane="e0_0" slope="0.00"/>
    </timestep>
    <timestep time="26.50">
        <vehicle id="background.0" x="223.21" y="-1.60" angle="90.00" type="human" speed="13.43" pos="223.21" lane="e0_0" slope="0.00"/>
        <vehicle id="background.1" x="66.91" y="-1.60" angle="90.00" type="human" speed="8.38" pos="66.91" lane="e0_0" slope="0.00"/>
        <vehicle id="background.2" x="46.02" y="-1.60" angle="90.00" type="human" speed="9.90" pos="46.02" lane="e0_0" slope="0.00"/>
    </timestep>
    <timestep time="27.00">
        <vehicle id="background.0" x="229.94" y="-1.60" angle="90.00" type="human" speed="13.46" pos="229.94" lane="e0_0" slope="0.00"/>
        <vehicle id="background.1" x="70.93" y="-1.60" angle="90.00" type="human" speed="8.05" pos="70.93" lane="e0_0" slope="0.00"/>
        <vehicle id="background.2" x="50.97" y="-1.60" angle="90.00" type="human" speed="9.90" pos="50.97" lane="e0_0" slope="0.00"/>
    </timestep>
    <timestep time="27.50">
        <vehicle id="background.0" x="236.81" y="-1.60" angle="90.00" type="human" speed="13.75" pos="236.81" lane="e0_0" slope="0.00"/>
        <vehicle id="background.1" x="75.08" y="-1.60" angle="90.00" type="human" speed="8.30" pos="75.08" lane="e0_0" slope="0.00"/>
        <vehicle id="background.2" x="55.76" y="-1.60" angle="90.00" type="human" speed="9.58" pos="55.76" lane="e0_0" slope="0.00"/>
    </timestep>
    <timestep time="28.00">
        <vehicle id="background.0" x="243.57" y="-1.60" angle="90.00" type="human" speed="13.51" pos="243.57" lane="e0_0" slope="0.00"/>
        <vehicle id="background.1" x="79.10" y="-1.60" angle="90.00" type="human" speed="8.04" pos="79.10" lane="e0_0" slope="0.00"/>
        <vehicle id="background.2" x="60.42" y="-1.60" angle="90.00" type="human" speed="9.31" pos="60.42" lane="e0_0" slope="0.00"/>
    </timestep>
    <timestep time="28.50">
        <vehicle id="background.0" x="250.26" y="-1.60" angle="90.00" type="human" speed="13.39" pos="250.26" lane="e0_0" slope="0.00"/>
        <vehicle id="background.1" x="83.21" y="-1.60" angle="90.00" type="human" speed="8.23" pos="83.21" lane="e0_0" slope="0.00"/>
        <vehicle id="background.2" x="64.84" y="-1.60" angle="90.00" type="human" speed="8.84" pos="64.84" lane="e0_0" slope="0.00"/>
    </timestep>
    <timestep time="29.00">
        <vehicle id="background.0" x="257.05" y="-1.60" angle="90.00" type="human" speed="13.57" pos="257.05" lane="e0_0" slope="0.00"/>
        <vehicle id="background.1" x="87.21" y="-1.60" angle="90.00" type="human" speed="8.00" pos="87.21" lane="e0_0" slope="0.00"/>
        <vehicle id="background.2" x="69.42" y="-1.60" angle="90.00" type="human" speed="9.15" pos="69.42" lane="e0_0" slope="0.00"/>
    </timestep>
    <timestep time="29.50">
        <vehicle id="background.0" x="263.94" y="-1.60" angle="90.00" type="human" speed="13.79" pos="263.94" lane="e0_0" slope="0.00"/>
        <vehicle id="background.1" x="91.24" y="-1.60" angle="90.00" type="human" speed="8.07" pos="91.24" lane="e0_0" slope="0.00"/>
        <vehicle id="background.2" x="73.84" y="-1.60" angle="90.00" type="human" speed="8.85" pos="73.84" lane="e0_0" slope="0.00"/>
    </timestep>
    <timestep time="30.00">
        <vehicle id="background.0" x="270.88" y="-1.60" angle="90.00" type="human" speed="13.87" pos="270.88" lane="e0_0" slope="0.00"/>
        <vehicle id="background.1" x="95.37" y="-1.60" angle="90.00" type="human" speed="8.25" pos="95.37" lane="e0_0" slope="0.00"/>
        <vehicle id="background.2" x="78.09" y="-1.60" angle="90.00" type="human" speed="8.50" pos="78.09" lane="e0_0" slope="0.00"/>
    </timestep>
    <timestep time="30.50">
        <vehicle id="background.0" x="277.64" y="-1.60" angle="90.00" type="human" speed="13.53" pos="277.64" lane="e0_0" slope="0.00"/>
        <vehicle id="background.1" x="99.53" y="-1.60" angle="90.00" type="human" speed="8.32" pos="99.53" lane="e0_0" slope="0.00"/>
        <vehicle id="background.2" x="82.28" y="-1.60" angle="90.00" type="human" speed="8.37" pos="82.28" lane="e0_0" slope="0.00"/>
    </timestep>
    <timestep time="31.00">
        <vehicle id="background.0" x="284.52" y="-1.60" angle="90.00" type="human" speed="13.77" pos="284.52" lane="e0_0" slope="0.00"/>
        <vehicle id="background.1" x="103.73" y="-1.60" angle="90.00" type="human" speed="8.41" pos="103.73" lane="e0_0" slope="0.00"/>
        <vehicle id="background.2" x="86.62" y="-1.60" angle="90.00" type="human" speed="8.69" pos="86.62" lane="e0_0" slope="0.00"/>
    </timestep>
    <timestep time="31.50">
        <vehicle id="background.0" x="291.29" y="-1.60" angle="90.00" type="human" speed="13.53" pos="291.29" lane="e0_0" slope="0.00"/>
        <vehicle id="background.1" x="107.76" y="-1.60" angle="90.00" type="human" speed="8.06" pos="107.76" lane="e0_0" slope="0.00"/>
        <vehicle id="background.2" x="90.96" y="-1.60" angle="90.00" type="human" speed="8.67" pos="90.96" lane="e0_0" slope="0.00"/>
    </timestep>
    <timestep time="32.00">
        <vehicle id="background.0" x="298.03" y="-1.60" angle="90.00" type="human" speed="13.49" pos="298.03" lane="e0_0" slope="0.00"/>
        <vehicle id="background.1" x="111.82" y="-1.60" angle="90.00" type="human" speed="8.11" pos="111.82" lane="e0_0" slope="0.00"/>
        <vehicle id="background.2" x="95.02" y="-1.60" angle="90.00" type="human" speed="8.11" pos="95.02" lane="e0_0" slope="0.00"/>
    </timestep>
    <timestep time="32.50">
        <vehicle id="background.0" x="304.69" y="-1.60" angle="90.00" type="human" speed="13.51" pos="4.69" lane="e1_0" slope="0.00"/>
        <vehicle id="background.1" x="115.97" y="-1.60" angle="90.00" type="human" speed="8.31" pos="115.97" lane="e0_0" slope="0.00"/>
        <vehicle id="background.2" x="99.08" y="-1.60" angle="90.00" type="human" speed="8.14" pos="99.08" lane="e0_0" slope="0.00"/>
    </timestep>
    <timestep time="33.00">
        <vehicle id="background.0" x="311.48" y="-1.60" angle="90.00" type="human" speed="13.58" pos="11.48" lane="e1_0" slope="0.00"/>
        <vehicle id="background.1" x="120.18" y="-1.60" angle="90.00" type="human" speed="8.41" pos="120.18" lane="e0_0" slope="0.00"/>
        <vehicle id="background.2" x="103.41" y="-1.60" angle="90.00" type="human" speed="8.65" pos="103.41" lane="e0_0" slope="0.00"/>
    </timestep>
    <timestep time="33.50">
        <vehicle id="background.0" x="318.39" y="-1.60" angle="90.00" type="human" speed="13.83" pos="18.39" lane="e1_0" slope="0.00"/>
        <vehicle id="background.1" x="124.20" y="-1.60" angle="90.00" type="human" speed="8.04" pos="124.20" lane="e0_0" slope="0.00"/>
        <vehicle id="background.2" x="107.72" y="-1.60" angle="90.00" type="human" speed="8.61" pos="107.72" lane="e0_0" slope="0.00"/>
    </timestep>
    <timestep time="34.00">
        <vehicle id="background.0" x="325.30" y="-1.60" angle="90.00" type="human" speed="13.81" pos="25.30" lane="e1_0" slope="0.00"/>
        <vehicle id="background.1" x="128.37" y="-1.60" angle="90.00" type="human" speed="8.33" pos="128.37" lane="e0_0" slope="0.00"/>
        <vehicle id="background.2" x="111.86" y="-1.60" angle="90.00" type="human" speed="8.28" pos="111.86" lane="e0_0" slope="0.00"/>
    </timestep>
    <timestep time="34.50">
        <vehicle id="background.0" x="332.17" y="-1.60" angle="90.00" type="human" speed="13.74" pos="32.17" lane="e1_0" slope="0.00"/>
        <vehicle id="background.1" x="132.38" y="-1.60" angle="90.00" type="human" speed="8.02" pos="132.38" lane="e0_0" slope="0.00"/>
        <vehicle id="background.2" x="116.04" y="-1.60" angle="90.00" type="human" speed="8.37" pos="116.04" lane="e0_0" slope="0.00"/>
    </timestep>
    <timestep time="35.00">
        <vehicle id="background.0" x="339.00" y="-1.60" angle="90.00" type="human" speed="13.67" pos="39.00" lane="e1_0" slope="0.00"/>
        <vehicle id="background.1" x="136.35" y="-1.60" angle="90.00" type="human" speed="7.94" pos="136.35" lane="e0_0" slope="0.00"/>
        <vehicle id="background.2" x="120.00" y="-1.60" angle="90.00" type="human" speed="7.93" pos="120.00" lane="e0_0" slope="0.00"/>
    </timestep>
    <timestep time="35.50">
        <vehicle id="background.0" x="345.73" y="-1.60" angle="90.00" type="human" speed="13.46" pos="45.73" lane="e1_0" slope="0.00"/>
        <vehicle id="background.1" x="140.56" y="-1.60" angle="90.00" type="human" speed="8.42" pos="140.56" lane="e0_0" slope="0.00"/>
        <vehicle id="background.2" x="124.02" y="-1.60" angle="90.00" type="human" speed="8.04" pos="124.02" lane="e0_0" slope="0.00"/>
    </timestep>
    <timestep time="36.00">
        <vehicle id="background.1" x="144.54" y="-1.60" angle="90.00" type="human" speed="7.97" pos="144.54" lane="e0_0" slope="0.00"/>
        <vehicle id="background.2" x="128.19" y="-1.60" angle="90.00" type="human" speed="8.34" pos="128.19" lane="e0_0" slope="0.00"/>
    </timestep>
    <timestep time="36.50">
        <vehicle id="background.1" x="148.53" y="-1.60" angle="90.00" type="human" speed="7.98" pos="148.53" lane="e0_0" slope="0.00"/>
        <vehicle id="background.2" x="132.25" y="-1.60" angle="90.00" type="human" speed="8.12" pos="132.25" lane="e0_0" slope="0.00"/>
    </timestep>
    <timestep time="37.00">
        <vehicle id="background.1" x="152.50" y="-1.60" angle="90.00" type="human" speed="7.93" pos="152.50" lane="e0_0" slope="0.00"/>
        <vehicle id="background.2" x="136.31" y="-1.60" angle="90.00" type="human" speed="8.11" pos="136.31" lane="e0_0" slope="0.00"/>
    </timestep>
    <timestep time="37.50">
        <vehicle id="background.1" x="156.49" y="-1.60" angle="90.00" type="human" speed="7.99" pos="156.49" lane="e0_0" slope="0.00"/>
        <vehicle id="background.2" x="140.38" y="-1.60" angle="90.00" type="human" speed="8.14" pos="140.38" lane="e0_0" slope="0.00"/>
    </timestep>
    <timestep time="38.00">
        <vehicle id="background.1" x="160.63" y="-1.60" angle="90.00" type="human" speed="8.28" pos="160.63" lane="e0_0" slope="0.00"/>
        <vehicle id="background.2" x="144.36" y="-1.60" angle="90.00" type="human" speed="7.96" pos="144.36" lane="e0_0" slope="0.00"/>
    </timestep>
    <timestep time="38.50">
        <vehicle id="background.1" x="164.62" y="-1.60" angle="90.00" type="human" speed="7.97" pos="164.62" lane="e0_0" slope="0.00"/>
        <vehicle id="background.2" x="148.54" y="-1.60" angle="90.00" type="human" speed="8.35" pos="148.54" lane="e0_0" slope="0.00"/>
    </timestep>
    <timestep time="39.00">
        <vehicle id="background.1" x="168.70" y="-1.60" angle="90.00" type="human" speed="8.18" pos="168.70" lane="e0_0" slope="0.00"/>
        <vehicle id="background.2" x="152.40" y="-1.60" angle="90.00" type="human" speed="7.72" pos="152.40" lane="e0_0" slope="0.00"/>
    </timestep>
    <timestep time="39.50">
        <vehicle id="background.1" x="172.79" y="-1.60" angle="90.00" type="human" speed="8.17" pos="172.79" lane="e0_0" slope="0.00"/>
        <vehicle id="background.2" x="156.50" y="-1.60" angle="90.00" type="human" speed="8.21" pos="156.50" lane="e0_0" slope="0.00"/>
    </timestep>
    <timestep time="40.00">
        <vehicle id="background.1" x="176.77" y="-1.60" angle="90.00" type="human" speed="7.97" pos="176.77" lane="e0_0" slope="0.00"/>
        <vehicle id="background.2" x="160.65" y="-1.60" angle="90.00" type="human" speed="8.30" pos="160.65" lane="e0_0" slope="0.00"/>
    </timestep>
    <timestep time="40.50">
        <vehicle id="background.1" x="180.79" y="-1.60" angle="90.00" type="human" speed="8.03" pos="180.79" lane="e0_0" slope="0.00"/>
        <vehicle id="background.2" x="164.71" y="-1.60" angle="90.00" type="human" speed="8.12" pos="164.71" lane="e0_0" slope="0.00"/>
    </timestep>
    <timestep time="41.00">
        <vehicle id="background.1" x="184.84" y="-1.60" angle="90.00" type="human" speed="8.09" pos="184.84" lane="e0_0" slope="0.00"/>
        <vehicle id="background.2" x="168.59" y="-1.60" angle="90.00" type="human" speed="7.77" pos="168.59" lane="e0_0" slope="0.00"/>
    </timestep>
    <timestep time="41.50">
        <vehicle id="background.1" x="188.95" y="-1.60" angle="90.00" type="human" speed="8.22" pos="188.95" lane="e0_0" slope="0.00"/>
        <vehicle id="background.2" x="172.54" y="-1.60" angle="90.00" type="human" speed="7.89" pos="172.54" lane="e0_0" slope="0.00"/>
        <vehicle id="background.3" x="5.10" y="-1.60" angle="90.00" type="human" speed="12.03" pos="5.10" lane="e0_0" slope="0.00"/>
    </timestep>
    <timestep time="42.00">
        <vehicle id="background.1" x="192.95" y="-1.60" angle="90.00" type="human" speed="8.00" pos="192.95" lane="e0_0" slope="0.00"/>
        <vehicle id="background.2" x="176.59" y="-1.60" angle="90.00" type="human" speed="8.10" pos="176.59" lane="e0_0" slope="0.00"/>
        <vehicle id="background.3" x="11.01" y="-1.60" angle="90.00" type="human" speed="11.83" pos="11.01" lane="e0_0" slope="0.00"/>
    </timestep>
    <timestep time="42.50">
        <vehicle id="background.1" x="197.09" y="-1.60" angle="90.00" type="human" speed="8.28" pos="197.09" lane="e0_0" slope="0.00"/>
        <vehicle id="background.2" x="180.74" y="-1.60" angle="90.00" type="human" speed="8.31" pos="180.74" lane="e0_0" slope="0.00"/>
        <vehicle id="background.3" x="16.83" y="-1.60" angle="90.00" type="human" speed="11.63" pos="16.83" lane="e0_0" slope="0.00"/>
    </timestep>
    <timestep time="43.00">
        <vehicle id="background.1" x="201.14" y="-1.60" angle="90.00" type="human" speed="8.10" pos="201.14" lane="e0_0" slope="0.00"/>
        <vehicle id="background.2" x="184.93" y="-1.60" angle="90.00" type="human" speed="8.38" pos="184.93" lane="e0_0" slope="0.00"/>
        <vehicle id="background.3" x="22.80" y="-1.60" angle="90.00" type="human" speed="11.95" pos="22.80" lane="e0_0" slope="0.00"/>
    </timestep>
    <timestep time="43.50">
        <vehicle id="background.1" x="205.24" y="-1.60" angle="90.00" type="human" speed="8.20" pos="205.24" lane="e0_0" slope="0.00"/>
        <vehicle id="background.2" x="188.88" y="-1.60" angle="90.00" type="human" speed="7.90" pos="188.88" lane="e0_0" slope="0.00"/>
        <vehicle id="background.3" x="28.77" y="-1.60" angle="90.00" type="human" speed="11.93" pos="28.77" lane="e0_0" slope="0.00"/>
    </timestep>
    <timestep time="44.00">
        <vehicle id="background.1" x="209.39" y="-1.60" angle="90.00" type="human" speed="8.31" pos="209.39" lane="e0_0" slope="0.00"/>
        <vehicle id="background.2" x="193.11" y="-1.60" angle="90.00" type="human" speed="8.45" pos="193.11" lane="e0_0" slope="0.00"/>
        <vehicle id="background.3" x="34.77" y="-1.60" angle="90.00" type="human" speed="11.99" pos="34.77" lane="e0_0" slope="0.00"/>
    </timestep>
    <timestep time="44.50">
        <vehicle id="background.1" x="213.56" y="-1.60" angle="90.00" type="human" speed="8.33" pos="213.56" lane="e0_0" slope="0.00"/>
        <vehicle id="background.2" x="197.22" y="-1.60" angle="90.00" type="human" speed="8.22" pos="197.22" lane="e0_0" slope="0.00"/>
        <vehicle id="background.3" x="40.68" y="-1.60" angle="90.00" type="human" speed="11.82" pos="40.68" lane="e0_0" slope="0.00"/>
    </timestep>
    <timestep time="45.00">
        <vehicle id="background.1" x="217.55" y="-1.60" angle="90.00" type="human" speed="7.99" pos="217.55" lane="e0_0" slope="0.00"/>
        <vehicle id="background.2" x="201.44" y="-1.60" angle="90.00" type="human" speed="8.44" pos="201.44" lane="e0_0" slope="0.00"/>
        <vehicle id="background.3" x="46.68" y="-1.60" angle="90.00" type="human" speed="12.01" pos="46.68" lane="e0_0" slope="0.00"/>
    </timestep>
    <timestep time="45.50">
        <vehicle id="background.1" x="221.73" y="-1.60" angle="90.00" type="human" speed="8.35" pos="221.73" lane="e0_0" slope="0.00"/>
        <vehicle id="background.2" x="205.39" y="-1.60" angle="90.00" type="human" speed="7.89" pos="205.39" lane="e0_0" slope="0.00"/>
        <vehicle id="background.3" x="52.55" y="-1.60" angle="90.00" type="human" speed="11.74" pos="52.55" lane="e0_0" slope="0.00"/>
    </timestep>
    <timestep time="46.00">
        <vehicle id="background.1" x="225.81" y="-1.60" angle="90.00" type="human" speed="8.16" pos="225.81" lane="e0_0" slope="0.00"/>
        <vehicle id="background.2" x="209.45" y="-1.60" angle="90.00" type="human" speed="8.13" pos="209.45" lane="e0_0" slope="0.00"/>
        <vehicle id="background.3" x="58.55" y="-1.60" angle="90.00" type="human" speed="12.01" pos="58.55" lane="e0_0" slope="0.00"/>
    </timestep>
    <timestep time="46.50">
        <vehicle id="background.1" x="229.96" y="-1.60" angle="90.00" type="human" speed="8.29" pos="229.96" lane="e0_0" slope="0.00"/>
        <vehicle id="background.2" x="213.50" y="-1.60" angle="90.00" type="human" speed="8.09" pos="213.50" lane="e0_0" slope="0.00"/>
        <vehicle id="background.3" x="64.48" y="-1.60" angle="90.00" type="human" speed="11.87" pos="64.48" lane="e0_0" slope="0.00"/>
    </timestep>
    <timestep time="47.00">
        <vehicle id="background.1" x="233.94" y="-1.60" angle="90.00" type="human" speed="7.96" pos="233.94" lane="e0_0" slope="0.00"/>
        <vehicle id="background.2" x="217.60" y="-1.60" angle="90.00" type="human" speed="8.21" pos="217.60" lane="e0_0" slope="0.00"/>
        <vehicle id="background.3" x="70.50" y="-1.60" angle="90.00" type="human" speed="12.03" pos="70.50" lane="e0_0" slope="0.00"/>
    </timestep>
    <timestep time="47.50">
        <vehicle id="background.1" x="237.97" y="-1.60" angle="90.00" type="human" speed="8.07" pos="237.97" lane="e0_0" slope="0.00"/>
        <vehicle id="background.2" x="221.70" y="-1.60" angle="90.00" type="human" speed="8.19" pos="221.70" lane="e0_0" slope="0.00"/>
        <vehicle id="background.3" x="76.30" y="-1.60" angle="90.00" type="human" speed="11.61" pos="76.30" lane="e0_0" slope="0.00"/>
    </timestep>
    <timestep time="48.00">
        <vehicle id="background.1" x="241.94" y="-1.60" angle="90.00" type="human" speed="7.92" pos="241.94" lane="e0_0" slope="0.00"/>
        <vehicle id="background.2" x="225.81" y="-1.60" angle="90.00" type="human" speed="8.22" pos="225.81" lane="e0_0" slope="0.00"/>
        <vehicle id="background.3" x="82.13" y="-1.60" angle="90.00" type="human" speed="11.65" pos="82.13" lane="e0_0" slope="0.00"/>
    </timestep>
    <timestep time="48.50">
        <vehicle id="background.1" x="246.03" y="-1.60" angle="90.00" type="human" speed="8.19" pos="246.03" lane="e0_0" slope="0.00"/>
        <vehicle id="background.2" x="229.72" y="-1.60" angle="90.00" type="human" speed="7.82" pos="229.72" lane="e0_0" slope="0.00"/>
        <vehicle id="background.3" x="88.01" y="-1.60" angle="90.00" type="human" speed="11.77" pos="88.01" lane="e0_0" slope="0.00"/>
    </timestep>
    <timestep time="49.00">
        <vehicle id="background.1" x="250.12" y="-1.60" angle="90.00" type="human" speed="8.18" pos="250.12" lane="e0_0" slope="0.00"/>
        <vehicle id="background.2" x="233.76" y="-1.60" angle="90.00" type="human" speed="8.07" pos="233.76" lane="e0_0" slope="0.00"/>
        <vehicle id="background.3" x="93.94" y="-1.60" angle="90.00" type="human" speed="11.85" pos="93.94" lane="e0_0" slope="0.00"/>
        <vehicle id="ego" x="5.10" y="-1.60" angle="90.00" type="ego_type" speed="0.00" pos="5.10" lane="e0_0" slope="0.00"/>
    </timestep>
    <timestep time="49.50">
        <vehicle id="background.1" x="254.32" y="-1.60" angle="90.00" type="human" speed="8.39" pos="254.32" lane="e0_0" slope="0.00"/>