<?xml version="1.0" encoding="UTF-8"?>

<!-- generated on 2026-05-14 17:04:02 by Eclipse SUMO sumo Version 1.24.0
<sumoConfiguration xmlns:xsi="http://www.w3.org/2001/XMLSchema-instance" xsi:noNamespaceSchemaLocation="http://sumo.dlr.de/xsd/sumoConfiguration.xsd">

    <input>
        <net-file value="scenarios/simple_arterial/simple_arterial.net.xml"/>
        <route-files value="scenarios/simple_arterial/simple_arterial.rou.xml"/>
        <additional-files value="scenarios/simple_arterial/simple_arterial.tls.xml"/>
    </input>

    <output>
        <fcd-output value="runs/fcd_expert_default/episode_00013_seed_55.fcd.xml"/>
    </output>

    <time>
        <begin value="0"/>
        <end value="900"/>
        <step-length value="0.5"/>
    </time>

    <report>
        <no-warnings value="true"/>
    </report>

    <traci_server>
        <remote-port value="24542"/>
    </traci_server>

    <random_number>
        <seed value="55"/>
    </random_number>

</sumoConfiguration>
-->

<fcd-export xmlns:xsi="http://www.w3.org/2001/XMLSchema-instance" xsi:noNamespaceSchemaLocation="http://sumo.dlr.de/xsd/fcd_file.xsd">
    <timestep time="0.00"/>
    <timestep time="0.50"/>
    <timestep time="1.00"/>
    <timestep time="1.50"/>
    <timestep time="2.00"/>
    <timestep time="2.50"/>
    <timestep time="3.00"/>
    <timestep time="3.50"/>
    <timestep time="4.00"/>
    <timestep time="4.50"/>
    <timestep time="5.00"/>
    <timestep time="5.50"/>
    <timestep time="6.00"/>
    <timestep time="6.50"/>
    <timestep time="7.00"/>
    <timestep time="7.50"/>
    <timestep time="8.00"/>
    <timestep time="8.50"/>
    <timestep time="9.00"/>
    <timestep time="9.50"/>
    <timestep time="10.00"/>
    <timestep time="10.50"/>
    <timestep time="11.00"/>
    <timestep time="11.50"/>
    <timestep time="12.00">
        <vehicle id="background.0" x="5.10" y="-1.60" angle="90.00" type="human" speed="13.09" pos="5.10" lane="e0_0" slope="0.00"/>
    </timestep>
    <timestep time="12.50">
        <vehicle id="background.0" x="11.40" y="-1.60" angle="90.00" type="human" speed="12.60" pos="11.40" lane="e0_0" slope="0.00"/>
    </timestep>
    <timestep time="13.00">
        <vehicle id="background.0" x="17.92" y="-1.60" angle="90.00" type="human" speed="13.04" pos="17.92" lane="e0_0" slope="0.00"/>
    </timestep>
    <timestep time="13.50">
        <vehicle id="background.0" x="24.38" y="-1.60" angle="90.00" type="human" speed="12.92" pos="24.38" lane="e0_0" slope="0.00"/>
    </timestep>
    <timestep time="14.00">
        <vehicle id="background.0" x="30.71" y="-1.60" angle="90.00" type="human" speed="12.67" pos="30.71" lane="e0_0" slope="0.00"/>
    </timestep>
    <timestep time="14.50">
        <vehicle id="background.0" x="37.09" y="-1.60" angle="90.00" type="human" speed="12.75" pos="37.09" lane="e0_0" slope="0.00"/>
    </timestep>
    <timestep time="15.00">
        <vehicle id="background.0" x="43.53" y="-1.60" angle="90.00" type="human" speed="12.88" pos="43.53" lane="e0_0" slope="0.00"/>
    </timestep>
    <timestep time="15.50">
        <vehicle id="background.0" x="50.02" y="-1.60" angle="90.00" type="human" speed="12.99" pos="50.02" lane="e0_0" slope="0.00"/>
    </timestep>
    <timestep time="16.00">
        <vehicle id="background.0" x="56.42" y="-1.60" angle="90.00" type="human" speed="12.79" pos="56.42" lane="e0_0" slope="0.00"/>
    </timestep>
    <timestep time="16.50">
        <vehicle id="background.0" x="62.87" y="-1.60" angle="90.00" type="human" speed="12.91" pos="62.87" lane="e0_0" slope="0.00"/>
    </timestep>
    <timestep time="17.00">
        <vehicle id="background.0" x="69.37" y="-1.60" angle="90.00" type="human" speed="13.00" pos="69.37" lane="e0_0" slope="0.00"/>
    </timestep>
    <timestep time="17.50">
        <vehicle id="background.0" x="75.71" y="-1.60" angle="90.00" type="human" speed="12.68" pos="75.71" lane="e0_0" slope="0.00"/>
    </timestep>
    <timestep time="18.00">
        <vehicle id="background.0" x="82.19" y="-1.60" angle="90.00" type="human" speed="12.95" pos="82.19" lane="e0_0" slope="0.00"/>
    </timestep>
    <timestep time="18.50">
        <vehicle id="background.0" x="88.67" y="-1.60" angle="90.00" type="human" speed="12.96" pos="88.67" lane="e0_0" slope="0.00"/>
    </timestep>
    <timestep time="19.00">
        <vehicle id="background.0" x="94.97" y="-1.60" angle="90.00" type="human" speed="12.61" pos="94.97" lane="e0_0" slope="0.00"/>
    </timestep>
    <timestep time="19.50">
        <vehicle id="background.0" x="101.40" y="-1.60" angle="90.00" type="human" speed="12.86" pos="101.40" lane="e0_0" slope="0.00"/>
    </timestep>
    <timestep time="20.00">
        <vehicle id="background.0" x="107.92" y="-1.60" angle="90.00" type="human" speed="13.04" pos="107.92" lane="e0_0" slope="0.00"/>
    </timestep>
    <timestep time="20.50">
        <vehicle id="background.0" x="114.24" y="-1.60" angle="90.00" type="human" speed="12.65" pos="114.24" lane="e0_0" slope="0.00"/>
    </timestep>
    <timestep time="21.00">
        <vehicle id="background.0" x="120.65" y="-1.60" angle="90.00" type="human" speed="12.80" pos="120.65" lane="e0_0" slope="0.00"/>
    </timestep>
    <timestep time="21.50">
        <vehicle id="background.0" x="127.09" y="-1.60" angle="90.00" type="human" speed="12.89" pos="127.09" lane="e0_0" slope="0.00"/>
    </timestep>
    <timestep time="22.00">
        <vehicle id="background.0" x="133.43" y="-1.60" angle="90.00" type="human" speed="12.68" pos="133.43" lane="e0_0" slope="0.00"/>
        <vehicle id="background.1" x="5.10" y="-1.60" angle="90.00" type="human" speed="13.74" pos="5.10" lane="e0_0" slope="0.00"/>
    </timestep>
    <timestep time="22.50">
        <vehicle id="background.0" x="139.90" y="-1.60" angle="90.00" type="human" speed="12.92" pos="139.90" lane="e0_0" slope="0.00"/>
        <vehicle id="background.1" x="11.80" y="-1.60" angle="90.00" type="human" speed="13.39" pos="11.80" lane="e0_0" slope="0.00"/>
    </timestep>
    <timestep time="23.00">
        <vehicle id="background.0" x="146.42" y="-1.60" angle="90.00" type="human" speed="13.04" pos="146.42" lane="e0_0" slope="0.00"/>
        <vehicle id="background.1" x="18.67" y="-1.60" angle="90.00" type="human" speed="13.74" pos="18.67" lane="e0_0" slope="0.00"/>
    </timestep>
    <timestep time="23.50">
        <vehicle id="background.0" x="152.75" y="-1.60" angle="90.00" type="human" speed="12.67" pos="152.75" lane="e0_0" slope="0.00"/>
        <vehicle id="background.1" x="25.52" y="-1.60" angle="90.00" type="human" speed="13.72" pos="25.52" lane="e0_0" slope="0.00"/>
    </timestep>
    <timestep time="24.00">
        <vehicle id="background.0" x="159.27" y="-1.60" angle="90.00" type="human" speed="13.04" pos="159.27" lane="e0_0" slope="0.00"/>
        <vehicle id="background.1" x="32.39" y="-1.60" angle="90.00" type="human" speed="13.73" pos="32.39" lane="e0_0" slope="0.00"/>
    </timestep>
    <timestep time="24.50">
        <vehicle id="background.0" x="165.65" y="-1.60" angle="90.00" type="human" speed="12.76" pos="165.65" lane="e0_0" slope="0.00"/>
        <vehicle id="background.1" x="39.09" y="-1.60" angle="90.00" type="human" speed="13.39" pos="39.09" lane="e0_0" slope="0.00"/>
    </timestep>
    <timestep time="25.00">
        <vehicle id="background.0" x="172.06" y="-1.60" angle="90.00" type="human" speed="12.81" pos="172.06" lane="e0_0" slope="0.00"/>
        <vehicle id="background.1" x="45.75" y="-1.60" angle="90.00" type="human" speed="13.32" pos="45.75" lane="e0_0" slope="0.00"/>
    </timestep>
    <timestep time="25.50">
        <vehicle id="background.0" x="178.39" y="-1.60" angle="90.00" type="human" speed="12.66" pos="178.39" lane="e0_0" slope="0.00"/>
        <vehicle id="background.1" x="52.39" y="-1.60" angle="90.00" type="human" speed="13.28" pos="52.39" lane="e0_0" slope="0.00"/>
    </timestep>
    <timestep time="26.00">
        <vehicle id="background.0" x="184.87" y="-1.60" angle="90.00" type="human" speed="12.95" pos="184.87" lane="e0_0" slope="0.00"/>
        <vehicle id="background.1" x="59.10" y="-1.60" angle="90.00" type="human" speed="13.42" pos="59.10" lane="e0_0" slope="0.00"/>
    </timestep>
    <timestep time="26.50">
        <vehicle id="background.0" x="191.30" y="-1.60" angle="90.00" type="human" speed="12.87" pos="191.30" lane="e0_0" slope="0.00"/>
        <vehicle id="background.1" x="65.87" y="-1.60" angle="90.00" type="human" speed="13.55" pos="65.87" lane="e0_0" slope="0.00"/>
    </timestep>
    <timestep time="27.00">
        <vehicle id="background.0" x="197.62" y="-1.60" angle="90.00" type="human" speed="12.65" pos="197.62" lane="e0_0" slope="0.00"/>
        <vehicle id="background.1" x="72.58" y="-1.60" angle="90.00" type="human" speed="13.41" pos="72.58" lane="e0_0" slope="0.00"/>
    </timestep>
    <timestep time="27.50">
        <vehicle id="background.0" x="203.98" y="-1.60" angle="90.00" type="human" speed="12.72" pos="203.98" lane="e0_0" slope="0.00"/>
        <vehicle id="background.1" x="79.41" y="-1.60" angle="90.00" type="human" speed="13.67" pos="79.41" lane="e0_0" slope="0.00"/>
    </timestep>
    <timestep time="28.00">
        <vehicle id="background.0" x="210.35" y="-1.60" angle="90.00" type="human" speed="12.73" pos="210.35" lane="e0_0" slope="0.00"/>
        <vehicle id="background.1" x="86.10" y="-1.60" angle="90.00" type="human" speed="13.39" pos="86.10" lane="e0_0" slope="0.00"/>
    </timestep>
    <timestep time="28.50">
        <vehicle id="background.0" x="216.88" y="-1.60" angle="90.00" type="human" speed="13.07" pos="216.88" lane="e0_0" slope="0.00"/>
        <vehicle id="background.1" x="92.82" y="-1.60" angle="90.00" type="human" speed="13.43" pos="92.82" lane="e0_0" slope="0.00"/>
    </timestep>
    <timestep time="29.00">
        <vehicle id="background.0" x="223.42" y="-1.60" angle="90.00" type="human" speed="13.08" pos="223.42" lane="e0_0" slope="0.00"/>
        <vehicle id="background.1" x="99.51" y="-1.60" angle="90.00" type="human" speed="13.38" pos="99.51" lane="e0_0" slope="0.00"/>
    </timestep>
    <timestep time="29.50">
        <vehicle id="background.0" x="229.88" y="-1.60" angle="90.00" type="human" speed="12.92" pos="229.88" lane="e0_0" slope="0.00"/>
        <vehicle id="background.1" x="106.31" y="-1.60" angle="90.00" type="human" speed="13.59" pos="106.31" lane="e0_0" slope="0.00"/>
    </timestep>
    <timestep time="30.00">
        <vehicle id="background.0" x="236.29" y="-1.60" angle="90.00" type="human" speed="12.81" pos="236.29" lane="e0_0" slope="0.00"/>
        <vehicle id="background.1" x="113.09" y="-1.60" angle="90.00" type="human" speed="13.56" pos="113.09" lane="e0_0" slope="0.00"/>
    </timestep>
    <timestep time="30.50">
        <vehicle id="background.0" x="242.64" y="-1.60" angle="90.00" type="human" speed="12.71" pos="242.64" lane="e0_0" slope="0.00"/>
        <vehicle id="background.1" x="119.76" y="-1.60" angle="90.00" type="human" speed="13.34" pos="119.76" lane="e0_0" slope="0.00"/>
    </timestep>
    <timestep time="31.00">
        <vehicle id="background.0" x="249.01" y="-1.60" angle="90.00" type="human" speed="12.72" pos="249.01" lane="e0_0" slope="0.00"/>
        <vehicle id="background.1" x="126.55" y="-1.60" angle="90.00" type="human" speed="13.58" pos="126.55" lane="e0_0" slope="0.00"/>
    </timestep>
    <timestep time="31.50">
        <vehicle id="background.0" x="255.30" y="-1.60" angle="90.00" type="human" speed="12.59" pos="255.30" lane="e0_0" slope="0.00"/>
        <vehicle id="background.1" x="133.33" y="-1.60" angle="90.00" type="human" speed="13.56" pos="133.33" lane="e0_0" slope="0.00"/>
    </timestep>
    <timestep time="32.00">
        <vehicle id="background.0" x="261.60" y="-1.60" angle="90.00" type="human" speed="12.61" pos="261.60" lane="e0_0" slope="0.00"/>
        <vehicle id="background.1" x="140.11" y="-1.60" angle="90.00" type="human" speed="13.57" pos="140.11" lane="e0_0" slope="0.00"/>
    </timestep>
    <timestep time="32.50">
        <vehicle id="background.0" x="268.01" y="-1.60" angle="90.00" type="human" speed="12.81" pos="268.01" lane="e0_0" slope="0.00"/>
        <vehicle id="background.1" x="146.78" y="-1.60" angle="90.00" type="human" speed="13.34" pos="146.78" lane="e0_0" slope="0.00"/>
    </timestep>
    <timestep time="33.00">
        <vehicle id="background.0" x="274.31" y="-1.60" angle="90.00" type="human" speed="12.59" pos="274.31" lane="e0_0" slope="0.00"/>
        <vehicle id="background.1" x="153.61" y="-1.60" angle="90.00" type="human" speed="13.65" pos="153.61" lane="e0_0" slope="0.00"/>
        <vehicle id="background.2" x="5.10" y="-1.60" angle="90.00" type="human" speed="13.89" pos="5.10" lane="e0_0" slope="0.00"/>
    </timestep>
    <timestep time="33.50">
        <vehicle id="background.0" x="280.72" y="-1.60" angle="90.00" type="human" speed="12.83" pos="280.72" lane="e0_0" slope="0.00"/>
        <vehicle id="background.1" x="160.35" y="-1.60" angle="90.00" type="human" speed="13.49" pos="160.35" lane="e0_0" slope="0.00"/>
        <vehicle id="background.2" x="11.96" y="-1.60" angle="90.00" type="human" speed="13.72" pos="11.96" lane="e0_0" slope="0.00"/>
    </timestep>
    <timestep time="34.00">
        <vehicle id="background.0" x="287.05" y="-1.60" angle="90.00" type="human" speed="12.66" pos="287.05" lane="e0_0" slope="0.00"/>
        <vehicle id="background.1" x="166.99" y="-1.60" angle="90.00" type="human" speed="13.28" pos="166.99" lane="e0_0" slope="0.00"/>
        <vehicle id="background.2" x="18.83" y="-1.60" angle="90.00" type="human" speed="13.74" pos="18.83" lane="e0_0" slope="0.00"/>
    </timestep>
    <timestep time="34.50">
        <vehicle id="background.0" x="293.55" y="-1.60" angle="90.00" type="human" speed="12.99" pos="293.55" lane="e0_0" slope="0.00"/>
        <vehicle id="background.1" x="173.61" y="-1.60" angle="90.00" type="human" speed="13.25" pos="173.61" lane="e0_0" slope="0.00"/>
        <vehicle id="background.2" x="25.67" y="-1.60" angle="90.00" type="human" speed="13.69" pos="25.67" lane="e0_0" slope="0.00"/>
    </timestep>
    <timestep time="35.00">
        <vehicle id="background.0" x="300.00" y="-1.60" angle="90.00" type="human" speed="12.97" pos="0.03" lane=":j1_0_0" slope="0.00"/>
        <vehicle id="background.1" x="180.37" y="-1.60" angle="90.00" type="human" speed="13.51" pos="180.37" lane="e0_0" slope="0.00"/>
        <vehicle id="background.2" x="32.56" y="-1.60" angle="90.00" type="human" speed="13.78" pos="32.56" lane="e0_0" slope="0.00"/>
    </timestep>
    <timestep time="35.50">
        <vehicle id="background.0" x="306.45" y="-1.60" angle="90.00" type="human" speed="13.04" pos="6.45" lane="e1_0" slope="0.00"/>
        <vehicle id="background.1" x="187.20" y="-1.60" angle="90.00" type="human" speed="13.67" pos="187.20" lane="e0_0" slope="0.00"/>
        <vehicle id="background.2" x="39.31" y="-1.60" angle="90.00" type="human" speed="13.49" pos="39.31" lane="e0_0" slope="0.00"/>
    </timestep>
    <timestep time="36.00">
        <vehicle id="background.0" x="312.97" y="-1.60" angle="90.00" type="human" speed="13.04" pos="12.97" lane="e1_0" slope="0.00"/>
        <vehicle id="background.1" x="193.89" y="-1.60" angle="90.00" type="human" speed="13.38" pos="193.89" lane="e0_0" slope="0.00"/>
        <vehicle id="background.2" x="46.16" y="-1.60" angle="90.00" type="human" speed="13.71" pos="46.16" lane="e0_0" slope="0.00"/>
    </timestep>
    <timestep time="36.50">
        <vehicle id="background.0" x="319.36" y="-1.60" angle="90.00" type="human" speed="12.78" pos="19.36" lane="e1_0" slope="0.00"/>
        <vehicle id="background.1" x="200.62" y="-1.60" angle="90.00" type="human" speed="13.45" pos="200.62" lane="e0_0" slope="0.00"/>
        <vehicle id="background.2" x="52.87" y="-1.60" angle="90.00" type="human" speed="13.41" pos="52.87" lane="e0_0" slope="0.00"/>
    </timestep>
    <timestep time="37.00">
        <vehicle id="background.0" x="325.85" y="-1.60" angle="90.00" type="human" speed="12.97" pos="25.85" lane="e1_0" slope="0.00"/>
        <vehicle id="background.1" x="207.45" y="-1.60" angle="90.00" type="human" speed="13.66" pos="207.45" lane="e0_0" slope="0.00"/>
        <vehicle id="background.2" x="59.57" y="-1.60" angle="90.00" type="human" speed="13.40" pos="59.57" lane="e0_0" slope="0.00"/>
    </timestep>
    <timestep time="37.50">
        <vehicle id="background.0" x="332.23" y="-1.60" angle="90.00" type="human" speed="12.76" pos="32.23" lane="e1_0" slope="0.00"/>
        <vehicle id="background.1" x="214.13" y="-1.60" angle="90.00" type="human" speed="13.35" pos="214.13" lane="e0_0" slope="0.00"/>
        <vehicle id="background.2" x="66.38" y="-1.60" angle="90.00" type="human" speed="13.62" pos="66.38" lane="e0_0" slope="0.00"/>
    </timestep>
    <timestep time="38.00">
        <vehicle id="background.0" x="338.67" y="-1.60" angle="90.00" type="human" speed="12.88" pos="38.67" lane="e1_0" slope="0.00"/>
        <vehicle id="background.1" x="220.96" y="-1.60" angle="90.00" type="human" speed="13.66" pos="220.96" lane="e0_0" slope="0.00"/>
        <vehicle id="background.2" x="73.12" y="-1.60" angle="90.00" type="human" speed="13.48" pos="73.12" lane="e0_0" slope="0.00"/>
    </timestep>
    <timestep time="38.50">
        <vehicle id="background.0" x="344.97" y="-1.60" angle="90.00" type="human" speed="12.60" pos="44.97" lane="e1_0" slope="0.00"/>
        <vehicle id="background.1" x="227.64" y="-1.60" angle="90.00" type="human" speed="13.37" pos="227.64" lane="e0_0" slope="0.00"/>
        <vehicle id="background.2" x="79.89" y="-1.60" angle="90.00" type="human" speed="13.54" pos="79.89" lane="e0_0" slope="0.00"/>
    </timestep>
    <timestep time="39.00">
        <vehicle id="background.1" x="234.45" y="-1.60" angle="90.00" type="human" speed="13.61" pos="234.45" lane="e0_0" slope="0.00"/>
        <vehicle id="background.2" x="86.81" y="-1.60" angle="90.00" type="human" speed="13.84" pos="86.81" lane="e0_0" slope="0.00"/>
    </timestep>
    <timestep time="39.50">
        <vehicle id="background.1" x="241.13" y="-1.60" angle="90.00" type="human" speed="13.37" pos="241.13" lane="e0_0" slope="0.00"/>
        <vehicle id="background.2" x="93.59" y="-1.60" angle="90.00" type="human" speed="13.57" pos="93.59" lane="e0_0" slope="0.00"/>
    </timestep>
    <timestep time="40.00">
        <vehicle id="background.1" x="247.97" y="-1.60" angle="90.00" type="human" speed="13.68" pos="247.97" lane="e0_0" slope="0.00"/>
        <vehicle id="background.2" x="100.52" y="-1.60" angle="90.00" type="human" speed="13.85" pos="100.52" lane="e0_0" slope="0.00"/>
    </timestep>
    <timestep time="40.50">
        <vehicle id="background.1" x="254.84" y="-1.60" angle="90.00" type="human" speed="13.73" pos="254.84" lane="e0_0" slope="0.00"/>
        <vehicle id="background.2" x="107.45" y="-1.60" angle="90.00" type="human" speed="13.88" pos="107.45" lane="e0_0" slope="0.00"/>
    </timestep>
    <timestep time="41.00">
        <vehicle id="background.1" x="261.66" y="-1.60" angle="90.00" type="human" speed="13.65" pos="261.66" lane="e0_0" slope="0.00"/>
        <vehicle id="background.2" x="114.29" y="-1.60" angle="90.00" type="human" speed="13.67" pos="114.29" lane="e0_0" slope="0.00"/>
    </timestep>
    <timestep time="41.50">
        <vehicle id="background.1" x="268.29" y="-1.60" angle="90.00" type="human" speed="13.26" pos="268.29" lane="e0_0" slope="0.00"/>
        <vehicle id="background.2" x="121.11" y="-1.60" angle="90.00" type="human" speed="13.65" pos="121.11" lane="e0_0" slope="0.00"/>
    </timestep>
    <timestep time="42.00">
        <vehicle id="background.1" x="275.09" y="-1.60" angle="90.00" type="human" speed="13.60" pos="275.09" lane="e0_0" slope="0.00"/>
        <vehicle id="background.2" x="127.94" y="-1.60" angle="90.00" type="human" speed="13.65" pos="127.94" lane="e0_0" slope="0.00"/>
    </timestep>
    <timestep time="42.50">
        <vehicle id="background.1" x="281.76" y="-1.60" angle="90.00" type="human" speed="13.33" pos="281.76" lane="e0_0" slope="0.00"/>
        <vehicle id="background.2" x="134.78" y="-1.60" angle="90.00" type="human" speed="13.69" pos="134.78" lane="e0_0" slope="0.00"/>
    </timestep>
    <timestep time="43.00">
        <vehicle id="background.1" x="288.54" y="-1.60" angle="90.00" type="human" speed="13.56" pos="288.54" lane="e0_0" slope="0.00"/>
        <vehicle id="background.2" x="141.63" y="-1.60" angle="90.00" type="human" speed="13.69" pos="141.63" lane="e0_0" slope="0.00"/>
    </timestep>
    <timestep time="43.50">
        <vehicle id="background.1" x="295.29" y="-1.60" angle="90.00" type="human" speed="13.51" pos="295.29" lane="e0_0" slope="0.00"/>
        <vehicle id="background.2" x="148.39" y="-1.60" angle="90.00" type="human" speed="13.52" pos="148.39" lane="e0_0" slope="0.00"/>
    </timestep>
    <timestep time="44.00">
        <vehicle id="background.1" x="302.01" y="-1.60" angle="90.00" type="human" speed="13.65" pos="2.01" lane="e1_0" slope="0.00"/>
        <vehicle id="background.2" x="155.20" y="-1.60" angle="90.00" type="human" speed="13.62" pos="155.20" lane="e0_0" slope="0.00"/>
    </timestep>
    <timestep time="44.50">
        <vehicle id="background.1" x="308.71" y="-1.60" angle="90.00" type="human" speed="13.39" pos="8.71" lane="e1_0" slope="0.00"/>
        <vehicle id="background.2" x="162.11" y="-1.60" angle="90.00" type="human" speed="13.81" pos="162.11" lane="e0_0" slope="0.00"/>
    </timestep>
    <timestep time="45.00">
        <vehicle id="background.1" x="315.44" y="-1.60" angle="90.00" type="human" speed="13.46" pos="15.44" lane="e1_0" slope="0.00"/>
        <vehicle id="background.2" x="168.95" y="-1.60" angle="90.00" type="human" speed="13.68" pos="168.95" lane="e0_0" slope="0.00"/>
    </timestep>
    <timestep time="45.50">
        <vehicle id="background.1" x="322.11" y="-1.60" angle="90.00" type="human" speed="13.34" pos="22.11" lane="e1_0" slope="0.00"/>
        <vehicle id="background.2" x="175.89" y="-1.60" angle="90.00" type="human" speed="13.89" pos="175.89" lane="e0_0" slope="0.00"/>
    </timestep>
    <timestep time="46.00">
        <vehicle id="background.1" x="328.85" y="-1.60" angle="90.00" type="human" speed="13.47" pos="28.85" lane="e1_0" slope="0.00"/>
        <vehicle id="background.2" x="182.82" y="-1.60" angle="90.00" type="human" speed="13.86" pos="182.82" lane="e0_0" slope="0.00"/>
    </timestep>
    <timestep time="46.50">
        <vehicle id="background.1" x="335.48" y="-1.60" angle="90.00" type="human" speed="13.27" pos="35.48" lane="e1_0" slope="0.00"/>
        <vehicle id="background.2" x="189.65" y="-1.60" angle="90.00" type="human" speed="13.66" pos="189.65" lane="e0_0" slope="0.00"/>
    </timestep>
    <timestep time="47.00">
        <vehicle id="background.1" x="342.15" y="-1.60" angle="90.00" type="human" speed="13.34" pos="42.15" lane="e1_0" slope="0.00"/>
        <vehicle id="background.2" x="196.60" y="-1.60" angle="90.00" type="human" speed="13.89" pos="196.60" lane="e0_0" slope="0.00"/>
    </timestep>
    <timestep time="47.50">
        <vehicle id="background.1" x="348.90" y="-1.60" angle="90.00" type="human" speed="13.50" pos="48.90" lane="e1_0" slope="0.00"/>
        <vehicle id="background.2" x="203.53" y="-1.60" angle="90.00" type="human" speed="13.87" pos="203.53" lane="e0_0" slope="0.00"/>
    </timestep>
    <timestep time="48.00">
        <vehicle id="background.2" x="210.38" y="-1.60" angle="90.00" type="human" speed="13.69" pos="210.38" lane="e0_0" slope="0.00"/>
    </timestep>
    <timestep time="48.50">
        <vehicle id="background.2" x="217.14" y="-1.60" angle="90.00" type="human" speed="13.52" pos="217.14" lane="e0_0" slope="0.00"/>
    </timestep>
    <timestep time="49.00">
        <vehicle id="background.2" x="224.01" y="-1.60" angle="90.00" type="human" speed="13.74" pos="224.01" lane="e0_0" slope="0.00"/>
    </timestep>
    <timestep time="49.50">
        <vehicle id="background.2" x="230.78" y="-1.60" angle="90.00" type="human" speed="13.55" pos="230.78" lane="e0_0" slope="0.00"/>
    </timestep>
    <timestep time="50.00">
        <vehicle id="background.2" x="237.53" y="-1.60" angle="90.00" type="human" speed="13.50" pos="237.53" lane="e0_0" slope="0.00"/>
    </timestep>
    <timestep time="50.50">
        <vehicle id="background.2" x="244.44" y="-1.60" angle="90.00" type="human" speed="13.82" pos="244.44" lane="e0_0" slope="0.00"/>
    </timestep>
    <timestep time="51.00">
        <vehicle id="background.2" x="251.24" y="-1.60" angle="90.00" type="human" speed="13.60" pos="251.24" lane="e0_0" slope="0.00"/>
    </timestep>
    <timestep time="51.50">
        <vehicle id="background.2" x="258.05" y="-1.60" angle="90.00" type="human" speed="13.62" pos="258.05" lane="e0_0" slope="0.00"/>
    </timestep>
    <timestep time="52.00">
        <vehicle id="background.2" x="264.95" y="-1.60" angle="90.00" type="human" speed="13.79" pos="264.95" lane="e0_0" slope="0.00"/>
    </timestep>
    <timestep time="52.50">
        <vehicle id="background.2" x="271.65" y="-1.60" angle="90.00" type="human" speed="13.41" pos="271.65" lane="e0_0" slope="0.00"/>
    </timestep>
    <timestep time="53.00">
        <vehicle id="background.2" x="278.41" y="-1.60" angle="90.00" type="human" speed="13.52" pos="278.41" lane="e0_0" slope="0.00"/>
    </timestep>
    <timestep time="53.50">
        <vehicle id="background.2" x="284.47" y="-1.60" angle="90.00" type="human" speed="12.12" pos="284.47" lane="e0_0" slope="0.00"/>
    </timestep>
    <timestep time="54.00">
        <vehicle id="background.2" x="289.61" y="-1.60" angle="90.00" type="human" speed="10.28" pos="289.61" lane="e0_0" slope="0.00"/>
    </timestep>
    <timestep time="54.50">
        <vehicle id="background.2" x="293.63" y="-1.60" angle="90.00" type="human" speed="8.03" pos="293.63" lane="e0_0" slope="0.00"/>
    </timestep>
    <timestep time="55.00">
        <vehicle id="background.2" x="296.52" y="-1.60" angle="90.00" type="human" speed="5.78" pos="296.52" lane="e0_0" slope="0.00"/>
    </timestep>
    <timestep time="55.50">
        <vehicle id="background.2" x="298.28" y="-1.60" angle="90.00" type="human" speed="3.53" pos="298.28" lane="e0_0" slope="0.00"/>
    </timestep>
    <timestep time="56.00">
        <vehicle id="background.2" x="298.92" y="-1.60" angle="90.00" type="human" speed="1.28" pos="298.92" lane="e0_0" slope="0.00"/>
    </timestep>
    <timestep time="56.50">
        <vehicle id="background.2" x="298.98" y="-1.60" angle="90.00" type="human" speed="0.12" pos="298.98" lane="e0_0" slope="0.00"/>
    </timestep>
    <timestep time="57.00">
        <vehicle id="background.2" x="299.00" y="-1.60" angle="90.00" type="human" speed="0.03" pos="299.00" lane="e0_0" slope="0.00"/>
    </timestep>
    <timestep time="57.50">
        <vehicle id="background.2" x="299.00" y="-1.60" angle="90.00" type="human" speed="0.00" pos="299.00" lane="e0_0" slope="0.00"/>
    </timestep>
    <timestep time="58.00">
        <vehicle id="background.2" x="299.00" y="-1.60" angle="90.00" type="human" speed="0.00" pos="299.00" lane="e0_0" slope="0.00"/>
    </timestep>
    <timestep time="58.50">
        <vehicle id="background.2" x="299.00" y="-1.60" angle="90.00" type="human" speed="0.00" pos="299.00" lane="e0_0" slope="0.00"/>
        <vehicle id="background.3" x="5.10" y="-1.60" angle="90.00" type="human" speed="11.37" pos="5.10" lane="e0_0" slope="0.00"/>
    </timestep>
    <timestep time="59.00">
        <vehicle id="background.2" x="299.00" y="-1.60" angle="90.00" type="human" speed="0.00" pos="299.00" lane="e0_0" slope="0.00"/>
        <vehicle id="background.3" x="10.78" y="-1.60" angle="90.00" type="human" speed="11.36" pos="10.78" lane="e0_0" slope="0.00"/>
    </timestep>
    <timestep time="59.50">
        <vehicle id="background.2" x="299.00" y="-1.60" angle="90.00" type="human" speed="0.00" pos="299.00" lane="e0_0" slope="0.00"/>
        <vehicle id="background.3" x="16.35" y="-1.60" angle="90.00" type="human" speed="11.15" pos="16.35" lane="e0_0" slope="0.00"/>
    </timestep>
    <timestep time="60.00">
        <vehicle id="background.2" x="299.00" y="-1.60" angle="90.00" type="human" speed="0.00" pos="299.00" lane="e0_0" slope="0.00"/>
        <vehicle id="background.3" x="21.94" y="-1.60" angle="90.00" type="human" speed="11.17" pos="21.94" lane="e0_0" slope="0.00"/>
    </timestep>
    <timestep time="60.50">
        <vehicle id="background.2" x="299.00" y="-1.60" angle="90.00" type="human" speed="0.00" pos="299.00" lane="e0_0" slope="0.00"/>
        <vehicle id="background.3" x="27.54" y="-1.60" angle="90.00" type="human" speed="11.20" pos="27.54" lane="e0_0" slope="0.00"/>
    </timestep>
    <timestep time="61.00">
        <vehicle id="background.2" x="299.00" y="-1.60" angle="90.00" type="human" speed="0.00" pos="299.00" lane="e0_0" slope="0.00"/>
        <vehicle id="background.3" x="33.21" y="-1.60" angle="90.00" type="human" speed="11.35" pos="33.21" lane="e0_0" slope="0.00"/>
    </timestep>
    <timestep time="61.50">
        <vehicle id="background.2" x="299.00" y="-1.60" angle="90.00" type="human" speed="0.00" pos="299.00" lane="e0_0" slope="0.00"/>
        <vehicle id="background.3" x="38.84" y="-1.60" angle="90.00" type="human" speed="11.26" pos="38.84" lane="e0_0" slope="0.00"/>
    </timestep>
    <timestep time="62.00">
        <vehicle id="background.2" x="299.00" y="-1.60" angle="90.00" type="human" speed="0.00" pos="299.00" lane="e0_0" slope="0.00"/>
        <vehicle id="background.3" x="44.43" y="-1.60" angle="90.00" type="human" speed="11.19" pos="44.43" lane="e0_0" slope="0.00"/>
    </timestep>
    <timestep time="62.50">
        <vehicle id="background.2" x="299.00" y="-1.60" angle="90.00" type="human" speed="0.00" pos="299.00" lane="e0_0" slope="0.00"/>