<?xml version="1.0" encoding="UTF-8"?>

<!-- generated on 2026-05-14 17:04:49 by Eclipse SUMO sumo Version 1.24.0
<sumoConfiguration xmlns:xsi="http://www.w3.org/2001/XMLSchema-instance" xsi:noNamespaceSchemaLocation="http://sumo.dlr.de/xsd/sumoConfiguration.xsd">

    <input>
        <net-file value="scenarios/simple_arterial/simple_arterial.net.xml"/>
        <route-files value="scenarios/simple_arterial/simple_arterial.rou.xml"/>
        <additional-files value="scenarios/simple_arterial/simple_arterial.tls.xml"/>
    </input>

    <output>
        <fcd-output value="runs/fcd_expert_default/episode_00053_seed_95.fcd.xml"/>
    </output>

    <time>
        <begin value="0"/>
        <end value="900"/>
        <step-length value="0.5"/>
    </time>

    <report>
        <no-warnings value="true"/>
    </report>

    <traci_server>
        <remote-port value="24542"/>
    </traci_server>

    <random_number>
        <seed value="95"/>
    </random_number>

</sumoConfiguration>
-->

<fcd-export xmlns:xsi="http://www.w3.org/2001/XMLSchema-instance" xsi:noNamespaceSchemaLocation="http://sumo.dlr.de/xsd/fcd_file.xsd">
    <timestep time="0.00"/>
    <timestep time="0.50"/>
    <timestep time="1.00"/>
    <timestep time="1.50"/>
    <timestep time="2.00"/>
    <timestep time="2.50"/>
    <timestep time="3.00"/>
    <timestep time="3.50"/>
    <timestep time="4.00"/>
    <timestep time="4.50"/>
    <timestep time="5.00"/>
    <timestep time="5.50"/>
    <timestep time="6.00"/>
    <timestep time="6.50"/>
    <timestep time="7.00"/>
    <timestep time="7.50"/>
    <timestep time="8.00"/>
    <timestep time="8.50"/>
    <timestep time="9.00"/>
    <timestep time="9.50"/>
    <timestep time="10.00"/>
    <timestep time="10.50"/>
    <timestep time="11.00"/>
    <timestep time="11.50"/>
    <timestep time="12.00"/>
    <timestep time="12.50"/>
    <timestep time="13.00"/>
    <timestep time="13.50"/>
    <timestep time="14.00"/>
    <timestep time="14.50"/>
    <timestep time="15.00"/>
    <timestep time="15.50"/>
    <timestep time="16.00"/>
    <timestep time="16.50"/>
    <timestep time="17.00"/>
    <timestep time="17.50"/>
    <timestep time="18.00"/>
    <timestep time="18.50"/>
    <timestep time="19.00"/>
    <timestep time="19.50"/>
    <timestep time="20.00"/>
    <timestep time="20.50"/>
    <timestep time="21.00"/>
    <timestep time="21.50"/>
    <timestep time="22.00"/>
    <timestep time="22.50"/>
    <timestep time="23.00"/>
    <timestep time="23.50"/>
    <timestep time="24.00"/>
    <timestep time="24.50"/>
    <timestep time="25.00"/>
    <timestep time="25.50"/>
    <timestep time="26.00"/>
    <timestep time="26.50"/>
    <timestep time="27.00"/>
    <timestep time="27.50"/>
    <timestep time="28.00"/>
    <timestep time="28.50"/>
    <timestep time="29.00"/>
    <timestep time="29.50"/>
    <timestep time="30.00"/>
    <timestep time="30.50"/>
    <timestep time="31.00"/>
    <timestep time="31.50"/>
    <timestep time="32.00"/>
    <timestep time="32.50"/>
    <timestep time="33.00"/>
    <timestep time="33.50"/>
    <timestep time="34.00"/>
    <timestep time="34.50"/>
    <timestep time="35.00">
        <vehicle id="background.0" x="5.10" y="-1.60" angle="90.00" type="human" speed="12.72" pos="5.10" lane="e0_0" slope="0.00"/>
    </timestep>
    <timestep time="35.50">
        <vehicle id="background.0" x="11.41" y="-1.60" angle="90.00" type="human" speed="12.61" pos="11.41" lane="e0_0" slope="0.00"/>
    </timestep>
    <timestep time="36.00">
        <vehicle id="background.0" x="17.65" y="-1.60" angle="90.00" type="human" speed="12.48" pos="17.65" lane="e0_0" slope="0.00"/>
    </timestep>
    <timestep time="36.50">
        <vehicle id="background.0" x="23.78" y="-1.60" angle="90.00" type="human" speed="12.26" pos="23.78" lane="e0_0" slope="0.00"/>
    </timestep>
    <timestep time="37.00">
        <vehicle id="background.0" x="29.91" y="-1.60" angle="90.00" type="human" speed="12.27" pos="29.91" lane="e0_0" slope="0.00"/>
    </timestep>
    <timestep time="37.50">
        <vehicle id="background.0" x="36.07" y="-1.60" angle="90.00" type="human" speed="12.31" pos="36.07" lane="e0_0" slope="0.00"/>
    </timestep>
    <timestep time="38.00">
        <vehicle id="background.0" x="42.42" y="-1.60" angle="90.00" type="human" speed="12.70" pos="42.42" lane="e0_0" slope="0.00"/>
    </timestep>
    <timestep time="38.50">
        <vehicle id="background.0" x="48.55" y="-1.60" angle="90.00" type="human" speed="12.27" pos="48.55" lane="e0_0" slope="0.00"/>
    </timestep>
    <timestep time="39.00">
        <vehicle id="background.0" x="54.74" y="-1.60" angle="90.00" type="human" speed="12.37" pos="54.74" lane="e0_0" slope="0.00"/>
    </timestep>
    <timestep time="39.50">
        <vehicle id="background.0" x="60.92" y="-1.60" angle="90.00" type="human" speed="12.36" pos="60.92" lane="e0_0" slope="0.00"/>
    </timestep>
    <timestep time="40.00">
        <vehicle id="background.0" x="67.13" y="-1.60" angle="90.00" type="human" speed="12.42" pos="67.13" lane="e0_0" slope="0.00"/>
    </timestep>
    <timestep time="40.50">
        <vehicle id="background.0" x="73.46" y="-1.60" angle="90.00" type="human" speed="12.66" pos="73.46" lane="e0_0" slope="0.00"/>
    </timestep>
    <timestep time="41.00">
        <vehicle id="background.0" x="79.70" y="-1.60" angle="90.00" type="human" speed="12.48" pos="79.70" lane="e0_0" slope="0.00"/>
    </timestep>
    <timestep time="41.50">
        <vehicle id="background.0" x="86.03" y="-1.60" angle="90.00" type="human" speed="12.67" pos="86.03" lane="e0_0" slope="0.00"/>
    </timestep>
    <timestep time="42.00">
        <vehicle id="background.0" x="92.28" y="-1.60" angle="90.00" type="human" speed="12.49" pos="92.28" lane="e0_0" slope="0.00"/>
    </timestep>
    <timestep time="42.50">
        <vehicle id="background.0" x="98.50" y="-1.60" angle="90.00" type="human" speed="12.44" pos="98.50" lane="e0_0" slope="0.00"/>
    </timestep>
    <timestep time="43.00">
        <vehicle id="background.0" x="104.79" y="-1.60" angle="90.00" type="human" speed="12.59" pos="104.79" lane="e0_0" slope="0.00"/>
    </timestep>
    <timestep time="43.50">
        <vehicle id="background.0" x="111.01" y="-1.60" angle="90.00" type="human" speed="12.43" pos="111.01" lane="e0_0" slope="0.00"/>
    </timestep>
    <timestep time="44.00">
        <vehicle id="background.0" x="117.19" y="-1.60" angle="90.00" type="human" speed="12.36" pos="117.19" lane="e0_0" slope="0.00"/>
    </timestep>
    <timestep time="44.50">
        <vehicle id="background.0" x="123.54" y="-1.60" angle="90.00" type="human" speed="12.70" pos="123.54" lane="e0_0" slope="0.00"/>
    </timestep>
    <timestep time="45.00">
        <vehicle id="background.0" x="129.83" y="-1.60" angle="90.00" type="human" speed="12.58" pos="129.83" lane="e0_0" slope="0.00"/>
    </timestep>
    <timestep time="45.50">
        <vehicle id="background.0" x="136.10" y="-1.60" angle="90.00" type="human" speed="12.55" pos="136.10" lane="e0_0" slope="0.00"/>
    </timestep>
    <timestep time="46.00">
        <vehicle id="background.0" x="142.23" y="-1.60" angle="90.00" type="human" speed="12.25" pos="142.23" lane="e0_0" slope="0.00"/>
    </timestep>
    <timestep time="46.50">
        <vehicle id="background.0" x="148.52" y="-1.60" angle="90.00" type="human" speed="12.57" pos="148.52" lane="e0_0" slope="0.00"/>
    </timestep>
    <timestep time="47.00">
        <vehicle id="background.0" x="154.65" y="-1.60" angle="90.00" type="human" speed="12.26" pos="154.65" lane="e0_0" slope="0.00"/>
    </timestep>
    <timestep time="47.50">
        <vehicle id="background.0" x="160.88" y="-1.60" angle="90.00" type="human" speed="12.46" pos="160.88" lane="e0_0" slope="0.00"/>
    </timestep>
    <timestep time="48.00">
        <vehicle id="background.0" x="167.07" y="-1.60" angle="90.00" type="human" speed="12.39" pos="167.07" lane="e0_0" slope="0.00"/>
    </timestep>
    <timestep time="48.50">
        <vehicle id="background.0" x="173.35" y="-1.60" angle="90.00" type="human" speed="12.57" pos="173.35" lane="e0_0" slope="0.00"/>
    </timestep>
    <timestep time="49.00">
        <vehicle id="background.0" x="179.63" y="-1.60" angle="90.00" type="human" speed="12.56" pos="179.63" lane="e0_0" slope="0.00"/>
        <vehicle id="ego" x="5.10" y="-1.60" angle="90.00" type="ego_type" speed="0.00" pos="5.10" lane="e0_0" slope="0.00"/>
    </timestep>
    <timestep time="49.50">
        <vehicle id="background.0" x="185.91" y="-1.60" angle="90.00" type="human" speed="12.57" pos="185.91" lane="e0_0" slope="0.00"/>
        <vehicle id="ego" x="5.60" y="-1.60" angle="90.00" type="ego_type" speed="1.00" pos="5.60" lane="e0_0" slope="0.00"/>
    </timestep>
    <timestep time="50.00">
        <vehicle id="background.0" x="192.24" y="-1.60" angle="90.00" type="human" speed="12.65" pos="192.24" lane="e0_0" slope="0.00"/>
        <vehicle id="ego" x="6.60" y="-1.60" angle="90.00" type="ego_type" speed="2.00" pos="6.60" lane="e0_0" slope="0.00"/>
    </timestep>
    <timestep time="50.50">
        <vehicle id="background.0" x="198.59" y="-1.60" angle="90.00" type="human" speed="12.70" pos="198.59" lane="e0_0" slope="0.00"/>
        <vehicle id="ego" x="8.10" y="-1.60" angle="90.00" type="ego_type" speed="3.00" pos="8.10" lane="e0_0" slope="0.00"/>
    </timestep>
    <timestep time="51.00">
        <vehicle id="background.0" x="204.85" y="-1.60" angle="90.00" type="human" speed="12.52" pos="204.85" lane="e0_0" slope="0.00"/>
        <vehicle id="ego" x="10.10" y="-1.60" angle="90.00" type="ego_type" speed="4.00" pos="10.10" lane="e0_0" slope="0.00"/>
    </timestep>
    <timestep time="51.50">
        <vehicle id="background.0" x="211.02" y="-1.60" angle="90.00" type="human" speed="12.34" pos="211.02" lane="e0_0" slope="0.00"/>
        <vehicle id="ego" x="12.60" y="-1.60" angle="90.00" type="ego_type" speed="5.00" pos="12.60" lane="e0_0" slope="0.00"/>
    </timestep>
    <timestep time="52.00">
        <vehicle id="background.0" x="217.16" y="-1.60" angle="90.00" type="human" speed="12.29" pos="217.16" lane="e0_0" slope="0.00"/>
        <vehicle id="ego" x="15.60" y="-1.60" angle="90.00" type="ego_type" speed="6.00" pos="15.60" lane="e0_0" slope="0.00"/>
    </timestep>
    <timestep time="52.50">
        <vehicle id="background.0" x="223.36" y="-1.60" angle="90.00" type="human" speed="12.39" pos="223.36" lane="e0_0" slope="0.00"/>
        <vehicle id="ego" x="19.10" y="-1.60" angle="90.00" type="ego_type" speed="7.00" pos="19.10" lane="e0_0" slope="0.00"/>
    </timestep>
    <timestep time="53.00">
        <vehicle id="background.0" x="229.48" y="-1.60" angle="90.00" type="human" speed="12.23" pos="229.48" lane="e0_0" slope="0.00"/>
        <vehicle id="ego" x="23.10" y="-1.60" angle="90.00" type="ego_type" speed="8.00" pos="23.10" lane="e0_0" slope="0.00"/>
    </timestep>
    <timestep time="53.50">
        <vehicle id="background.0" x="235.67" y="-1.60" angle="90.00" type="human" speed="12.40" pos="235.67" lane="e0_0" slope="0.00"/>
        <vehicle id="ego" x="27.60" y="-1.60" angle="90.00" type="ego_type" speed="9.00" pos="27.60" lane="e0_0" slope="0.00"/>
    </timestep>
    <timestep time="54.00">
        <vehicle id="background.0" x="241.85" y="-1.60" angle="90.00" type="human" speed="12.35" pos="241.85" lane="e0_0" slope="0.00"/>
        <vehicle id="ego" x="32.60" y="-1.60" angle="90.00" type="ego_type" speed="10.00" pos="32.60" lane="e0_0" slope="0.00"/>
    </timestep>
    <timestep time="54.50">
        <vehicle id="background.0" x="248.00" y="-1.60" angle="90.00" type="human" speed="12.30" pos="248.00" lane="e0_0" slope="0.00"/>
        <vehicle id="ego" x="38.10" y="-1.60" angle="90.00" type="ego_type" speed="11.00" pos="38.10" lane="e0_0" slope="0.00"/>
    </timestep>
    <timestep time="55.00">
        <vehicle id="background.0" x="254.35" y="-1.60" angle="90.00" type="human" speed="12.71" pos="254.35" lane="e0_0" slope="0.00"/>
        <vehicle id="background.1" x="5.10" y="-1.60" angle="90.00" type="human" speed="12.22" pos="5.10" lane="e0_0" slope="0.00"/>
        <vehicle id="ego" x="44.10" y="-1.60" angle="90.00" type="ego_type" speed="12.00" pos="44.10" lane="e0_0" slope="0.00"/>
    </timestep>
    <timestep time="55.50">
        <vehicle id="background.0" x="260.58" y="-1.60" angle="90.00" type="human" speed="12.45" pos="260.58" lane="e0_0" slope="0.00"/>
        <vehicle id="background.1" x="10.98" y="-1.60" angle="90.00" type="human" speed="11.76" pos="10.98" lane="e0_0" slope="0.00"/>
        <vehicle id="ego" x="50.46" y="-1.60" angle="90.00" type="ego_type" speed="12.72" pos="50.46" lane="e0_0" slope="0.00"/>
    </timestep>
    <timestep time="56.00">
        <vehicle id="background.0" x="266.77" y="-1.60" angle="90.00" type="human" speed="12.37" pos="266.77" lane="e0_0" slope="0.00"/>
        <vehicle id="background.1" x="17.06" y="-1.60" angle="90.00" type="human" speed="12.15" pos="17.06" lane="e0_0" slope="0.00"/>
        <vehicle id="ego" x="56.82" y="-1.60" angle="90.00" type="ego_type" speed="12.72" pos="56.82" lane="e0_0" slope="0.00"/>
    </timestep>
    <timestep time="56.50">
        <vehicle id="background.0" x="272.88" y="-1.60" angle="90.00" type="human" speed="12.22" pos="272.88" lane="e0_0" slope="0.00"/>
        <vehicle id="background.1" x="23.05" y="-1.60" angle="90.00" type="human" speed="11.98" pos="23.05" lane="e0_0" slope="0.00"/>
        <vehicle id="ego" x="63.18" y="-1.60" angle="90.00" type="ego_type" speed="12.72" pos="63.18" lane="e0_0" slope="0.00"/>
    </timestep>
    <timestep time="57.00">
        <vehicle id="background.0" x="279.22" y="-1.60" angle="90.00" type="human" speed="12.69" pos="279.22" lane="e0_0" slope="0.00"/>
        <vehicle id="background.1" x="29.12" y="-1.60" angle="90.00" type="human" speed="12.15" pos="29.12" lane="e0_0" slope="0.00"/>
        <vehicle id="ego" x="69.54" y="-1.60" angle="90.00" type="ego_type" speed="12.72" pos="69.54" lane="e0_0" slope="0.00"/>
    </timestep>
    <timestep time="57.50">
        <vehicle id="background.0" x="285.27" y="-1.60" angle="90.00" type="human" speed="12.09" pos="285.27" lane="e0_0" slope="0.00"/>
        <vehicle id="background.1" x="35.12" y="-1.60" angle="90.00" type="human" speed="12.00" pos="35.12" lane="e0_0" slope="0.00"/>
        <vehicle id="ego" x="75.89" y="-1.60" angle="90.00" type="ego_type" speed="12.72" pos="75.89" lane="e0_0" slope="0.00"/>
    </timestep>
    <timestep time="58.00">
        <vehicle id="background.0" x="290.25" y="-1.60" angle="90.00" type="human" speed="9.97" pos="290.25" lane="e0_0" slope="0.00"/>
        <vehicle id="background.1" x="41.17" y="-1.60" angle="90.00" type="human" speed="12.09" pos="41.17" lane="e0_0" slope="0.00"/>
        <vehicle id="ego" x="82.25" y="-1.60" angle="90.00" type="ego_type" speed="12.72" pos="82.25" lane="e0_0" slope="0.00"/>
    </timestep>
    <timestep time="58.50">
        <vehicle id="background.0" x="294.11" y="-1.60" angle="90.00" type="human" speed="7.72" pos="294.11" lane="e0_0" slope="0.00"/>
        <vehicle id="background.1" x="47.07" y="-1.60" angle="90.00" type="human" speed="11.81" pos="47.07" lane="e0_0" slope="0.00"/>
        <vehicle id="ego" x="88.61" y="-1.60" angle="90.00" type="ego_type" speed="12.72" pos="88.61" lane="e0_0" slope="0.00"/>
    </timestep>
    <timestep time="59.00">
        <vehicle id="background.0" x="296.84" y="-1.60" angle="90.00" type="human" speed="5.47" pos="296.84" lane="e0_0" slope="0.00"/>
        <vehicle id="background.1" x="52.96" y="-1.60" angle="90.00" type="human" speed="11.77" pos="52.96" lane="e0_0" slope="0.00"/>
        <vehicle id="ego" x="94.97" y="-1.60" angle="90.00" type="ego_type" speed="12.72" pos="94.97" lane="e0_0" slope="0.00"/>
    </timestep>
    <timestep time="59.50">
        <vehicle id="background.0" x="298.45" y="-1.60" angle="90.00" type="human" speed="3.22" pos="298.45" lane="e0_0" slope="0.00"/>
        <vehicle id="background.1" x="59.02" y="-1.60" angle="90.00" type="human" speed="12.13" pos="59.02" lane="e0_0" slope="0.00"/>
        <vehicle id="ego" x="101.33" y="-1.60" angle="90.00" type="ego_type" speed="12.72" pos="101.33" lane="e0_0" slope="0.00"/>
    </timestep>
    <timestep time="60.00">
        <vehicle id="background.0" x="298.94" y="-1.60" angle="90.00" type="human" speed="0.98" pos="298.94" lane="e0_0" slope="0.00"/>
        <vehicle id="background.1" x="64.92" y="-1.60" angle="90.00" type="human" speed="11.79" pos="64.92" lane="e0_0" slope="0.00"/>
        <vehicle id="ego" x="107.69" y="-1.60" angle="90.00" type="ego_type" speed="12.72" pos="107.69" lane="e0_0" slope="0.00"/>
    </timestep>
    <timestep time="60.50">
        <vehicle id="background.0" x="298.99" y="-1.60" angle="90.00" type="human" speed="0.10" pos="298.99" lane="e0_0" slope="0.00"/>
        <vehicle id="background.1" x="70.94" y="-1.60" angle="90.00" type="human" speed="12.05" pos="70.94" lane="e0_0" slope="0.00"/>
        <vehicle id="ego" x="114.05" y="-1.60" angle="90.00" type="ego_type" speed="12.72" pos="114.05" lane="e0_0" slope="0.00"/>
    </timestep>
    <timestep time="61.00">
        <vehicle id="background.0" x="299.00" y="-1.60" angle="90.00" type="human" speed="0.01" pos="299.00" lane="e0_0" slope="0.00"/>
        <vehicle id="background.1" x="76.96" y="-1.60" angle="90.00" type="human" speed="12.02" pos="76.96" lane="e0_0" slope="0.00"/>
        <vehicle id="ego" x="120.41" y="-1.60" angle="90.00" type="ego_type" speed="12.72" pos="120.41" lane="e0_0" slope="0.00"/>
    </timestep>
    <timestep time="61.50">
        <vehicle id="background.0" x="299.00" y="-1.60" angle="90.00" type="human" speed="0.00" pos="299.00" lane="e0_0" slope="0.00"/>
        <vehicle id="background.1" x="82.89" y="-1.60" angle="90.00" type="human" speed="11.87" pos="82.89" lane="e0_0" slope="0.00"/>
        <vehicle id="background.2" x="5.10" y="-1.60" angle="90.00" type="human" speed="13.89" pos="5.10" lane="e0_0" slope="0.00"/>
        <vehicle id="ego" x="126.76" y="-1.60" angle="90.00" type="ego_type" speed="12.72" pos="126.76" lane="e0_0" slope="0.00"/>
    </timestep>
    <timestep time="62.00">
        <vehicle id="background.0" x="299.00" y="-1.60" angle="90.00" type="human" speed="0.00" pos="299.00" lane="e0_0" slope="0.00"/>
        <vehicle id="background.1" x="88.83" y="-1.60" angle="90.00" type="human" speed="11.87" pos="88.83" lane="e0_0" slope="0.00"/>
        <vehicle id="background.2" x="11.96" y="-1.60" angle="90.00" type="human" speed="13.72" pos="11.96" lane="e0_0" slope="0.00"/>
        <vehicle id="ego" x="133.12" y="-1.60" angle="90.00" type="ego_type" speed="12.72" pos="133.12" lane="e0_0" slope="0.00"/>
    </timestep>
    <timestep time="62.50">
        <vehicle id="background.0" x="299.00" y="-1.60" angle="90.00" type="human" speed="0.00" pos="299.00" lane="e0_0" slope="0.00"/>
        <vehicle id="background.1" x="94.83" y="-1.60" angle="90.00" type="human" speed="12.00" pos="94.83" lane="e0_0" slope="0.00"/>
        <vehicle id="background.2" x="18.80" y="-1.60" angle="90.00" type="human" speed="13.68" pos="18.80" lane="e0_0" slope="0.00"/>
        <vehicle id="ego" x="139.48" y="-1.60" angle="90.00" type="ego_type" speed="12.72" pos="139.48" lane="e0_0" slope="0.00"/>
    </timestep>
    <timestep time="63.00">
        <vehicle id="background.0" x="299.00" y="-1.60" angle="90.00" type="human" speed="0.00" pos="299.00" lane="e0_0" slope="0.00"/>
        <vehicle id="background.1" x="100.92" y="-1.60" angle="90.00" type="human" speed="12.18" pos="100.92" lane="e0_0" slope="0.00"/>
        <vehicle id="background.2" x="25.55" y="-1.60" angle="90.00" type="human" speed="13.51" pos="25.55" lane="e0_0" slope="0.00"/>
        <vehicle id="ego" x="145.84" y="-1.60" angle="90.00" type="ego_type" speed="12.72" pos="145.84" lane="e0_0" slope="0.00"/>
    </timestep>
    <timestep time="63.50">
        <vehicle id="background.0" x="299.00" y="-1.60" angle="90.00" type="human" speed="0.00" pos="299.00" lane="e0_0" slope="0.00"/>
        <vehicle id="background.1" x="107.02" y="-1.60" angle="90.00" type="human" speed="12.20" pos="107.02" lane="e0_0" slope="0.00"/>
        <vehicle id="background.2" x="32.28" y="-1.60" angle="90.00" type="human" speed="13.46" pos="32.28" lane="e0_0" slope="0.00"/>
        <vehicle id="ego" x="152.20" y="-1.60" angle="90.00" type="ego_type" speed="12.72" pos="152.20" lane="e0_0" slope="0.00"/>
    </timestep>
    <timestep time="64.00">
        <vehicle id="background.0" x="299.00" y="-1.60" angle="90.00" type="human" speed="0.00" pos="299.00" lane="e0_0" slope="0.00"/>
        <vehicle id="background.1" x="112.91" y="-1.60" angle="90.00" type="human" speed="11.77" pos="112.91" lane="e0_0" slope="0.00"/>
        <vehicle id="background.2" x="38.98" y="-1.60" angle="90.00" type="human" speed="13.39" pos="38.98" lane="e0_0" slope="0.00"/>
        <vehicle id="ego" x="158.56" y="-1.60" angle="90.00" type="ego_type" speed="12.72" pos="158.56" lane="e0_0" slope="0.00"/>
    </timestep>
    <timestep time="64.50">
        <vehicle id="background.0" x="299.00" y="-1.60" angle="90.00" type="human" speed="0.00" pos="299.00" lane="e0_0" slope="0.00"/>
        <vehicle id="background.1" x="118.91" y="-1.60" angle="90.00" type="human" speed="12.02" pos="118.91" lane="e0_0" slope="0.00"/>
        <vehicle id="background.2" x="45.85" y="-1.60" angle="90.00" type="human" speed="13.75" pos="45.85" lane="e0_0" slope="0.00"/>
        <vehicle id="ego" x="164.92" y="-1.60" angle="90.00" type="ego_type" speed="12.72" pos="164.92" lane="e0_0" slope="0.00"/>
    </timestep>
    <timestep time="65.00">
        <vehicle id="background.0" x="299.00" y="-1.60" angle="90.00" type="human" speed="0.00" pos="299.00" lane="e0_0" slope="0.00"/>
        <vehicle id="background.1" x="124.82" y="-1.60" angle="90.00" type="human" speed="11.80" pos="124.82" lane="e0_0" slope="0.00"/>
        <vehicle id="background.2" x="52.74" y="-1.60" angle="90.00" type="human" speed="13.78" pos="52.74" lane="e0_0" slope="0.00"/>
        <vehicle id="ego" x="171.28" y="-1.60" angle="90.00" type="ego_type" speed="12.72" pos="171.28" lane="e0_0" slope="0.00"/>
    </timestep>
    <timestep time="65.50">
        <vehicle id="background.0" x="299.00" y="-1.60" angle="90.00" type="human" speed="0.00" pos="299.00" lane="e0_0" slope="0.00"/>
        <vehicle id="background.1" x="130.77" y="-1.60" angle="90.00" type="human" speed="11.90" pos="130.77" lane="e0_0" slope="0.00"/>
        <vehicle id="background.2" x="59.51" y="-1.60" angle="90.00" type="human" speed="13.53" pos="59.51" lane="e0_0" slope="0.00"/>
        <vehicle id="ego" x="177.64" y="-1.60" angle="90.00" type="ego_type" speed="12.72" pos="177.64" lane="e0_0" slope="0.00"/>
    </timestep>
    <timestep time="66.00">
        <vehicle id="background.0" x="299.00" y="-1.60" angle="90.00" type="human" speed="0.00" pos="299.00" lane="e0_0" slope="0.00"/>
        <vehicle id="background.1" x="136.66" y="-1.60" angle="90.00" type="human" speed="11.79" pos="136.66" lane="e0_0" slope="0.00"/>
        <vehicle id="background.2" x="66.39" y="-1.60" angle="90.00" type="human" speed="13.77" pos="66.39" lane="e0_0" slope="0.00"/>
        <vehicle id="ego" x="183.99" y="-1.60" angle="90.00" type="ego_type" speed="12.72" pos="183.99" lane="e0_0" slope="0.00"/>
    </timestep>
    <timestep time="66.50">
        <vehicle id="background.0" x="299.00" y="-1.60" angle="90.00" type="human" speed="0.00" pos="299.00" lane="e0_0" slope="0.00"/>
        <vehicle id="background.1" x="142.64" y="-1.60" angle="90.00" type="human" speed="11.96" pos="142.64" lane="e0_0" slope="0.00"/>
        <vehicle id="background.2" x="73.09" y="-1.60" angle="90.00" type="human" speed="13.39" pos="73.09" lane="e0_0" slope="0.00"/>
        <vehicle id="ego" x="190.35" y="-1.60" angle="90.00" type="ego_type" speed="12.72" pos="190.35" lane="e0_0" slope="0.00"/>
    </timestep>
    <timestep time="67.00">
        <vehicle id="background.0" x="299.00" y="-1.60" angle="90.00" type="human" speed="0.00" pos="299.00" lane="e0_0" slope="0.00"/>
        <vehicle id="background.1" x="148.73" y="-1.60" angle="90.00" type="human" speed="12.19" pos="148.73" lane="e0_0" slope="0.00"/>
        <vehicle id="background.2" x="79.99" y="-1.60" angle="90.00" type="human" speed="13.80" pos="79.99" lane="e0_0" slope="0.00"/>
        <vehicle id="ego" x="196.71" y="-1.60" angle="90.00" type="ego_type" speed="12.72" pos="196.71" lane="e0_0" slope="0.00"/>
    </timestep>
    <timestep time="67.50">
        <vehicle id="background.0" x="299.00" y="-1.60" angle="90.00" type="human" speed="0.00" pos="299.00" lane="e0_0" slope="0.00"/>
        <vehicle id="background.1" x="154.67" y="-1.60" angle="90.00" type="human" speed="11.87" pos="154.67" lane="e0_0" slope="0.00"/>
        <vehicle id="background.2" x="86.72" y="-1.60" angle="90.00" type="human" speed="13.47" pos="86.72" lane="e0_0" slope="0.00"/>
        <vehicle id="ego" x="203.07" y="-1.60" angle="90.00" type="ego_type" speed="12.72" pos="203.07" lane="e0_0" slope="0.00"/>
    </timestep>
    <timestep time="68.00">
        <vehicle id="background.0" x="299.00" y="-1.60" angle="90.00" type="human" speed="0.00" pos="299.00" lane="e0_0" slope="0.00"/>
        <vehicle id="background.1" x="160.64" y="-1.60" angle="90.00" type="human" speed="11.94" pos="160.64" lane="e0_0" slope="0.00"/>
        <vehicle id="background.2" x="93.48" y="-1.60" angle="90.00" type="human" speed="13.52" pos="93.48" lane="e0_0" slope="0.00"/>
        <vehicle id="ego" x="209.43" y="-1.60" angle="90.00" type="ego_type" speed="12.72" pos="209.43" lane="e0_0" slope="0.00"/>
    </timestep>
    <timestep time="68.50">
        <vehicle id="background.0" x="299.00" y="-1.60" angle="90.00" type="human" speed="0.00" pos="299.00" lane="e0_0" slope="0.00"/>
        <vehicle id="background.1" x="166.64" y="-1.60" angle="90.00" type="human" speed="12.00" pos="166.64" lane="e0_0" slope="0.00"/>
        <vehicle id="background.2" x="100.24" y="-1.60" angle="90.00" type="human" speed="13.51" pos="100.24" lane="e0_0" slope="0.00"/>
        <vehicle id="ego" x="215.79" y="-1.60" angle="90.00" type="ego_type" speed="12.72" pos="215.79" lane="e0_0" slope="0.00"/>
    </timestep>
    <timestep time="69.00">
        <vehicle id="background.0" x="299.00" y="-1.60" angle="90.00" type="human" speed="0.00" pos="299.00" lane="e0_0" slope="0.00"/>
        <vehicle id="background.1" x="172.71" y="-1.60" angle="90.00" type="human" speed="12.15" pos="172.71" lane="e0_0" slope="0.00"/>
        <vehicle id="background.2" x="107.11" y="-1.60" angle="90.00" type="human" speed="13.74" pos="107.11" lane="e0_0" slope="0.00"/>
        <vehicle id="ego" x="222.15" y="-1.60" angle="90.00" type="ego_type" speed="12.72" pos="222.15" lane="e0_0" slope="0.00"/>
    </timestep>
    <timestep time="69.50">
        <vehicle id="background.0" x="299.00" y="-1.60" angle="90.00" type="human" speed="0.00" pos="299.00" lane="e0_0" slope="0.00"/>
        <vehicle id="background.1" x="178.75" y="-1.60" angle="90.00" type="human" speed="12.07" pos="178.75" lane="e0_0" slope="0.00"/>
        <vehicle id="background.2" x="114.05" y="-1.60" angle="90.00" type="human" speed="13.88" pos="114.05" lane="e0_0" slope="0.00"/>
        <vehicle id="ego" x="228.51" y="-1.60" angle="90.00" type="ego_type" speed="12.72" pos="228.51" lane="e0_0" slope="0.00"/>
    </timestep>
    <timestep time="70.00">
        <vehicle id="background.0" x="299.00" y="-1.60" angle="90.00" type="human" speed="0.00" pos="299.00" lane="e0_0" slope="0.00"/>
        <vehicle id="background.1" x="184.76" y="-1.60" angle="90.00" type="human" speed="12.03" pos="184.76" lane="e0_0" slope="0.00"/>
        <vehicle id="background.2" x="120.76" y="-1.60" angle="90.00" type="human" speed="13.43" pos="120.76" lane="e0_0" slope="0.00"/>
        <vehicle id="ego" x="234.87" y="-1.60" angle="90.00" type="ego_type" speed="12.72" pos="234.87" lane="e0_0" slope="0.00"/>
    </timestep>
    <timestep time="70.50">
        <vehicle id="background.0" x="299.00" y="-1.60" angle="90.00" type="human" speed="0.00" pos="299.00" lane="e0_0" slope="0.00"/>
        <vehicle id="background.1" x="190.86" y="-1.60" angle="90.00" type="human" speed="12.20" pos="190.86" lane="e0_0" slope="0.00"/>
        <vehicle id="background.2" x="127.52" y="-1.60" angle="90.00" type="human" speed="13.51" pos="127.52" lane="e0_0" slope="0.00"/>
        <vehicle id="ego" x="241.22" y="-1.60" angle="90.00" type="ego_type" speed="12.72" pos="241.22" lane="e0_0" slope="0.00"/>
    </timestep>
    <timestep time="71.00">
        <vehicle id="background.0" x="299.00" y="-1.60" angle="90.00" type="human" speed="0.00" pos="299.00" lane="e0_0" slope="0.00"/>
        <vehicle id="background.1" x="196.88" y="-1.60" angle="90.00" type="human" speed="12.04" pos="196.88" lane="e0_0" slope="0.00"/>
        <vehicle id="background.2" x="134.33" y="-1.60" angle="90.00" type="human" speed="13.62" pos="134.33" lane="e0_0" slope="0.00"/>
        <vehicle id="ego" x="247.58" y="-1.60" angle="90.00" type="ego_type" speed="12.72" pos="247.58" lane="e0_0" slope="0.00"/>
    </timestep>
    <timestep time="71.50">
        <vehicle id="background.0" x="299.00" y="-1.60" angle="90.00" type="human" speed="0.00" pos="299.00" lane="e0_0" slope="0.00"/>
        <vehicle id="background.1" x="202.94" y="-1.60" angle="90.00" type="human" speed="12.12" pos="202.94" lane="e0_0" slope="0.00"/>
        <vehicle id="background.2" x="141.21" y="-1.60" angle="90.00" type="human" speed="13.76" pos="141.21" lane="e0_0" slope="0.00"/>
        <vehicle id="ego" x="253.94" y="-1.60" angle="90.00" type="ego_type" speed="12.72" pos="253.94" lane="e0_0" slope="0.00"/>
    </timestep>
    <timestep time="72.00">