<?xml version="1.0" encoding="UTF-8"?>

<!-- generated on 2026-05-14 17:04:52 by Eclipse SUMO sumo Version 1.24.0
<sumoConfiguration xmlns:xsi="http://www.w3.org/2001/XMLSchema-instance" xsi:noNamespaceSchemaLocation="http://sumo.dlr.de/xsd/sumoConfiguration.xsd">

    <input>
        <net-file value="scenarios/simple_arterial/simple_arterial.net.xml"/>
        <route-files value="scenarios/simple_arterial/simple_arterial.rou.xml"/>
        <additional-files value="scenarios/simple_arterial/simple_arterial.tls.xml"/>
    </input>

    <output>
        <fcd-output value="runs/fcd_expert_default/episode_00056_seed_98.fcd.xml"/>
    </output>

    <time>
        <begin value="0"/>
        <end value="900"/>
        <step-length value="0.5"/>
    </time>

    <report>
        <no-warnings value="true"/>
    </report>

    <traci_server>
        <remote-port value="24542"/>
    </traci_server>

    <random_number>
        <seed value="98"/>
    </random_number>

</sumoConfiguration>
-->

<fcd-export xmlns:xsi="http://www.w3.org/2001/XMLSchema-instance" xsi:noNamespaceSchemaLocation="http://sumo.dlr.de/xsd/fcd_file.xsd">
    <timestep time="0.00"/>
    <timestep time="0.50"/>
    <timestep time="1.00"/>
    <timestep time="1.50">
        <vehicle id="background.0" x="5.10" y="-1.60" angle="90.00" type="human" speed="13.89" pos="5.10" lane="e0_0" slope="0.00"/>
    </timestep>
    <timestep time="2.00">
        <vehicle id="background.0" x="11.88" y="-1.60" angle="90.00" type="human" speed="13.55" pos="11.88" lane="e0_0" slope="0.00"/>
    </timestep>
    <timestep time="2.50">
        <vehicle id="background.0" x="18.64" y="-1.60" angle="90.00" type="human" speed="13.53" pos="18.64" lane="e0_0" slope="0.00"/>
    </timestep>
    <timestep time="3.00">
        <vehicle id="background.0" x="25.46" y="-1.60" angle="90.00" type="human" speed="13.65" pos="25.46" lane="e0_0" slope="0.00"/>
    </timestep>
    <timestep time="3.50">
        <vehicle id="background.0" x="32.20" y="-1.60" angle="90.00" type="human" speed="13.47" pos="32.20" lane="e0_0" slope="0.00"/>
    </timestep>
    <timestep time="4.00">
        <vehicle id="background.0" x="38.94" y="-1.60" angle="90.00" type="human" speed="13.48" pos="38.94" lane="e0_0" slope="0.00"/>
    </timestep>
    <timestep time="4.50">
        <vehicle id="background.0" x="45.70" y="-1.60" angle="90.00" type="human" speed="13.52" pos="45.70" lane="e0_0" slope="0.00"/>
    </timestep>
    <timestep time="5.00">
        <vehicle id="background.0" x="52.64" y="-1.60" angle="90.00" type="human" speed="13.87" pos="52.64" lane="e0_0" slope="0.00"/>
    </timestep>
    <timestep time="5.50">
        <vehicle id="background.0" x="59.41" y="-1.60" angle="90.00" type="human" speed="13.54" pos="59.41" lane="e0_0" slope="0.00"/>
    </timestep>
    <timestep time="6.00">
        <vehicle id="background.0" x="66.15" y="-1.60" angle="90.00" type="human" speed="13.49" pos="66.15" lane="e0_0" slope="0.00"/>
    </timestep>
    <timestep time="6.50">
        <vehicle id="background.0" x="73.05" y="-1.60" angle="90.00" type="human" speed="13.79" pos="73.05" lane="e0_0" slope="0.00"/>
    </timestep>
    <timestep time="7.00">
        <vehicle id="background.0" x="79.85" y="-1.60" angle="90.00" type="human" speed="13.61" pos="79.85" lane="e0_0" slope="0.00"/>
    </timestep>
    <timestep time="7.50">
        <vehicle id="background.0" x="86.55" y="-1.60" angle="90.00" type="human" speed="13.40" pos="86.55" lane="e0_0" slope="0.00"/>
    </timestep>
    <timestep time="8.00">
        <vehicle id="background.0" x="93.42" y="-1.60" angle="90.00" type="human" speed="13.74" pos="93.42" lane="e0_0" slope="0.00"/>
    </timestep>
    <timestep time="8.50">
        <vehicle id="background.0" x="100.22" y="-1.60" angle="90.00" type="human" speed="13.60" pos="100.22" lane="e0_0" slope="0.00"/>
    </timestep>
    <timestep time="9.00">
        <vehicle id="background.0" x="107.16" y="-1.60" angle="90.00" type="human" speed="13.87" pos="107.16" lane="e0_0" slope="0.00"/>
    </timestep>
    <timestep time="9.50">
        <vehicle id="background.0" x="113.97" y="-1.60" angle="90.00" type="human" speed="13.63" pos="113.97" lane="e0_0" slope="0.00"/>
    </timestep>
    <timestep time="10.00">
        <vehicle id="background.0" x="120.67" y="-1.60" angle="90.00" type="human" speed="13.39" pos="120.67" lane="e0_0" slope="0.00"/>
    </timestep>
    <timestep time="10.50">
        <vehicle id="background.0" x="127.40" y="-1.60" angle="90.00" type="human" speed="13.46" pos="127.40" lane="e0_0" slope="0.00"/>
    </timestep>
    <timestep time="11.00">
        <vehicle id="background.0" x="134.35" y="-1.60" angle="90.00" type="human" speed="13.89" pos="134.35" lane="e0_0" slope="0.00"/>
    </timestep>
    <timestep time="11.50">
        <vehicle id="background.0" x="141.20" y="-1.60" angle="90.00" type="human" speed="13.70" pos="141.20" lane="e0_0" slope="0.00"/>
    </timestep>
    <timestep time="12.00">
        <vehicle id="background.0" x="147.95" y="-1.60" angle="90.00" type="human" speed="13.51" pos="147.95" lane="e0_0" slope="0.00"/>
    </timestep>
    <timestep time="12.50">
        <vehicle id="background.0" x="154.82" y="-1.60" angle="90.00" type="human" speed="13.75" pos="154.82" lane="e0_0" slope="0.00"/>
    </timestep>
    <timestep time="13.00">
        <vehicle id="background.0" x="161.58" y="-1.60" angle="90.00" type="human" speed="13.52" pos="161.58" lane="e0_0" slope="0.00"/>
    </timestep>
    <timestep time="13.50">
        <vehicle id="background.0" x="168.37" y="-1.60" angle="90.00" type="human" speed="13.57" pos="168.37" lane="e0_0" slope="0.00"/>
    </timestep>
    <timestep time="14.00">
        <vehicle id="background.0" x="175.22" y="-1.60" angle="90.00" type="human" speed="13.70" pos="175.22" lane="e0_0" slope="0.00"/>
    </timestep>
    <timestep time="14.50">
        <vehicle id="background.0" x="182.04" y="-1.60" angle="90.00" type="human" speed="13.64" pos="182.04" lane="e0_0" slope="0.00"/>
    </timestep>
    <timestep time="15.00">
        <vehicle id="background.0" x="188.86" y="-1.60" angle="90.00" type="human" speed="13.64" pos="188.86" lane="e0_0" slope="0.00"/>
    </timestep>
    <timestep time="15.50">
        <vehicle id="background.0" x="195.72" y="-1.60" angle="90.00" type="human" speed="13.72" pos="195.72" lane="e0_0" slope="0.00"/>
    </timestep>
    <timestep time="16.00">
        <vehicle id="background.0" x="202.44" y="-1.60" angle="90.00" type="human" speed="13.43" pos="202.44" lane="e0_0" slope="0.00"/>
    </timestep>
    <timestep time="16.50">
        <vehicle id="background.0" x="209.23" y="-1.60" angle="90.00" type="human" speed="13.58" pos="209.23" lane="e0_0" slope="0.00"/>
    </timestep>
    <timestep time="17.00">
        <vehicle id="background.0" x="216.07" y="-1.60" angle="90.00" type="human" speed="13.69" pos="216.07" lane="e0_0" slope="0.00"/>
    </timestep>
    <timestep time="17.50">
        <vehicle id="background.0" x="222.93" y="-1.60" angle="90.00" type="human" speed="13.71" pos="222.93" lane="e0_0" slope="0.00"/>
    </timestep>
    <timestep time="18.00">
        <vehicle id="background.0" x="229.63" y="-1.60" angle="90.00" type="human" speed="13.40" pos="229.63" lane="e0_0" slope="0.00"/>
    </timestep>
    <timestep time="18.50">
        <vehicle id="background.0" x="236.49" y="-1.60" angle="90.00" type="human" speed="13.72" pos="236.49" lane="e0_0" slope="0.00"/>
    </timestep>
    <timestep time="19.00">
        <vehicle id="background.0" x="243.30" y="-1.60" angle="90.00" type="human" speed="13.63" pos="243.30" lane="e0_0" slope="0.00"/>
    </timestep>
    <timestep time="19.50">
        <vehicle id="background.0" x="250.09" y="-1.60" angle="90.00" type="human" speed="13.58" pos="250.09" lane="e0_0" slope="0.00"/>
    </timestep>
    <timestep time="20.00">
        <vehicle id="background.0" x="257.01" y="-1.60" angle="90.00" type="human" speed="13.84" pos="257.01" lane="e0_0" slope="0.00"/>
    </timestep>
    <timestep time="20.50">
        <vehicle id="background.0" x="263.79" y="-1.60" angle="90.00" type="human" speed="13.54" pos="263.79" lane="e0_0" slope="0.00"/>
    </timestep>
    <timestep time="21.00">
        <vehicle id="background.0" x="270.53" y="-1.60" angle="90.00" type="human" speed="13.48" pos="270.53" lane="e0_0" slope="0.00"/>
    </timestep>
    <timestep time="21.50">
        <vehicle id="background.0" x="277.39" y="-1.60" angle="90.00" type="human" speed="13.73" pos="277.39" lane="e0_0" slope="0.00"/>
    </timestep>
    <timestep time="22.00">
        <vehicle id="background.0" x="284.28" y="-1.60" angle="90.00" type="human" speed="13.78" pos="284.28" lane="e0_0" slope="0.00"/>
    </timestep>
    <timestep time="22.50">
        <vehicle id="background.0" x="291.13" y="-1.60" angle="90.00" type="human" speed="13.69" pos="291.13" lane="e0_0" slope="0.00"/>
    </timestep>
    <timestep time="23.00">
        <vehicle id="background.0" x="297.93" y="-1.60" angle="90.00" type="human" speed="13.61" pos="297.93" lane="e0_0" slope="0.00"/>
    </timestep>
    <timestep time="23.50">
        <vehicle id="background.0" x="304.59" y="-1.60" angle="90.00" type="human" speed="13.52" pos="4.59" lane="e1_0" slope="0.00"/>
    </timestep>
    <timestep time="24.00">
        <vehicle id="background.0" x="311.40" y="-1.60" angle="90.00" type="human" speed="13.62" pos="11.40" lane="e1_0" slope="0.00"/>
    </timestep>
    <timestep time="24.50">
        <vehicle id="background.0" x="318.18" y="-1.60" angle="90.00" type="human" speed="13.55" pos="18.18" lane="e1_0" slope="0.00"/>
    </timestep>
    <timestep time="25.00">
        <vehicle id="background.0" x="325.06" y="-1.60" angle="90.00" type="human" speed="13.75" pos="25.06" lane="e1_0" slope="0.00"/>
    </timestep>
    <timestep time="25.50">
        <vehicle id="background.0" x="331.90" y="-1.60" angle="90.00" type="human" speed="13.68" pos="31.90" lane="e1_0" slope="0.00"/>
    </timestep>
    <timestep time="26.00">
        <vehicle id="background.0" x="338.74" y="-1.60" angle="90.00" type="human" speed="13.68" pos="38.74" lane="e1_0" slope="0.00"/>
    </timestep>
    <timestep time="26.50">
        <vehicle id="background.0" x="345.55" y="-1.60" angle="90.00" type="human" speed="13.63" pos="45.55" lane="e1_0" slope="0.00"/>
    </timestep>
    <timestep time="27.00"/>
    <timestep time="27.50"/>
    <timestep time="28.00"/>
    <timestep time="28.50"/>
    <timestep time="29.00"/>
    <timestep time="29.50"/>
    <timestep time="30.00"/>
    <timestep time="30.50"/>
    <timestep time="31.00"/>
    <timestep time="31.50"/>
    <timestep time="32.00"/>
    <timestep time="32.50"/>
    <timestep time="33.00"/>
    <timestep time="33.50"/>
    <timestep time="34.00"/>
    <timestep time="34.50"/>
    <timestep time="35.00"/>
    <timestep time="35.50"/>
    <timestep time="36.00"/>
    <timestep time="36.50"/>
    <timestep time="37.00"/>
    <timestep time="37.50"/>
    <timestep time="38.00"/>
    <timestep time="38.50"/>
    <timestep time="39.00"/>
    <timestep time="39.50"/>
    <timestep time="40.00"/>
    <timestep time="40.50"/>
    <timestep time="41.00"/>
    <timestep time="41.50"/>
    <timestep time="42.00"/>
    <timestep time="42.50"/>
    <timestep time="43.00"/>
    <timestep time="43.50"/>
    <timestep time="44.00"/>
    <timestep time="44.50"/>
    <timestep time="45.00">
        <vehicle id="background.1" x="5.10" y="-1.60" angle="90.00" type="human" speed="13.29" pos="5.10" lane="e0_0" slope="0.00"/>
    </timestep>
    <timestep time="45.50">
        <vehicle id="background.1" x="11.67" y="-1.60" angle="90.00" type="human" speed="13.14" pos="11.67" lane="e0_0" slope="0.00"/>
    </timestep>
    <timestep time="46.00">
        <vehicle id="background.1" x="18.14" y="-1.60" angle="90.00" type="human" speed="12.93" pos="18.14" lane="e0_0" slope="0.00"/>
    </timestep>
    <timestep time="46.50">
        <vehicle id="background.1" x="24.58" y="-1.60" angle="90.00" type="human" speed="12.88" pos="24.58" lane="e0_0" slope="0.00"/>
    </timestep>
    <timestep time="47.00">
        <vehicle id="background.1" x="31.15" y="-1.60" angle="90.00" type="human" speed="13.15" pos="31.15" lane="e0_0" slope="0.00"/>
    </timestep>
    <timestep time="47.50">
        <vehicle id="background.1" x="37.59" y="-1.60" angle="90.00" type="human" speed="12.87" pos="37.59" lane="e0_0" slope="0.00"/>
    </timestep>
    <timestep time="48.00">
        <vehicle id="background.1" x="44.00" y="-1.60" angle="90.00" type="human" speed="12.83" pos="44.00" lane="e0_0" slope="0.00"/>
    </timestep>
    <timestep time="48.50">
        <vehicle id="background.1" x="50.59" y="-1.60" angle="90.00" type="human" speed="13.18" pos="50.59" lane="e0_0" slope="0.00"/>
    </timestep>
    <timestep time="49.00">
        <vehicle id="background.1" x="57.13" y="-1.60" angle="90.00" type="human" speed="13.08" pos="57.13" lane="e0_0" slope="0.00"/>
        <vehicle id="background.2" x="5.10" y="-1.60" angle="90.00" type="human" speed="13.89" pos="5.10" lane="e0_0" slope="0.00"/>
    </timestep>
    <timestep time="49.50">
        <vehicle id="background.1" x="63.62" y="-1.60" angle="90.00" type="human" speed="12.97" pos="63.62" lane="e0_0" slope="0.00"/>
        <vehicle id="background.2" x="11.90" y="-1.60" angle="90.00" type="human" speed="13.60" pos="11.90" lane="e0_0" slope="0.00"/>
    </timestep>
    <timestep time="50.00">
        <vehicle id="background.1" x="70.24" y="-1.60" angle="90.00" type="human" speed="13.24" pos="70.24" lane="e0_0" slope="0.00"/>
        <vehicle id="background.2" x="18.83" y="-1.60" angle="90.00" type="human" speed="13.87" pos="18.83" lane="e0_0" slope="0.00"/>
    </timestep>
    <timestep time="50.50">
        <vehicle id="background.1" x="76.78" y="-1.60" angle="90.00" type="human" speed="13.08" pos="76.78" lane="e0_0" slope="0.00"/>
        <vehicle id="background.2" x="25.62" y="-1.60" angle="90.00" type="human" speed="13.58" pos="25.62" lane="e0_0" slope="0.00"/>
    </timestep>
    <timestep time="51.00">
        <vehicle id="background.1" x="83.40" y="-1.60" angle="90.00" type="human" speed="13.24" pos="83.40" lane="e0_0" slope="0.00"/>
        <vehicle id="background.2" x="32.50" y="-1.60" angle="90.00" type="human" speed="13.75" pos="32.50" lane="e0_0" slope="0.00"/>
    </timestep>
    <timestep time="51.50">
        <vehicle id="background.1" x="90.01" y="-1.60" angle="90.00" type="human" speed="13.22" pos="90.01" lane="e0_0" slope="0.00"/>
        <vehicle id="background.2" x="39.42" y="-1.60" angle="90.00" type="human" speed="13.85" pos="39.42" lane="e0_0" slope="0.00"/>
    </timestep>
    <timestep time="52.00">
        <vehicle id="background.1" x="96.60" y="-1.60" angle="90.00" type="human" speed="13.18" pos="96.60" lane="e0_0" slope="0.00"/>
        <vehicle id="background.2" x="46.23" y="-1.60" angle="90.00" type="human" speed="13.62" pos="46.23" lane="e0_0" slope="0.00"/>
    </timestep>
    <timestep time="52.50">
        <vehicle id="background.1" x="103.12" y="-1.60" angle="90.00" type="human" speed="13.05" pos="103.12" lane="e0_0" slope="0.00"/>
        <vehicle id="background.2" x="53.15" y="-1.60" angle="90.00" type="human" speed="13.85" pos="53.15" lane="e0_0" slope="0.00"/>
    </timestep>
    <timestep time="53.00">
        <vehicle id="background.1" x="109.75" y="-1.60" angle="90.00" type="human" speed="13.25" pos="109.75" lane="e0_0" slope="0.00"/>
        <vehicle id="background.2" x="59.90" y="-1.60" angle="90.00" type="human" speed="13.49" pos="59.90" lane="e0_0" slope="0.00"/>
    </timestep>
    <timestep time="53.50">
        <vehicle id="background.1" x="116.33" y="-1.60" angle="90.00" type="human" speed="13.17" pos="116.33" lane="e0_0" slope="0.00"/>
        <vehicle id="background.2" x="66.76" y="-1.60" angle="90.00" type="human" speed="13.72" pos="66.76" lane="e0_0" slope="0.00"/>
    </timestep>
    <timestep time="54.00">
        <vehicle id="background.1" x="122.98" y="-1.60" angle="90.00" type="human" speed="13.29" pos="122.98" lane="e0_0" slope="0.00"/>
        <vehicle id="background.2" x="73.67" y="-1.60" angle="90.00" type="human" speed="13.82" pos="73.67" lane="e0_0" slope="0.00"/>
    </timestep>
    <timestep time="54.50">
        <vehicle id="background.1" x="129.40" y="-1.60" angle="90.00" type="human" speed="12.84" pos="129.40" lane="e0_0" slope="0.00"/>
        <vehicle id="background.2" x="80.60" y="-1.60" angle="90.00" type="human" speed="13.86" pos="80.60" lane="e0_0" slope="0.00"/>
    </timestep>
    <timestep time="55.00">
        <vehicle id="background.1" x="135.90" y="-1.60" angle="90.00" type="human" speed="13.01" pos="135.90" lane="e0_0" slope="0.00"/>
        <vehicle id="background.2" x="87.52" y="-1.60" angle="90.00" type="human" speed="13.84" pos="87.52" lane="e0_0" slope="0.00"/>
    </timestep>
    <timestep time="55.50">
        <vehicle id="background.1" x="142.50" y="-1.60" angle="90.00" type="human" speed="13.20" pos="142.50" lane="e0_0" slope="0.00"/>
        <vehicle id="background.2" x="94.29" y="-1.60" angle="90.00" type="human" speed="13.54" pos="94.29" lane="e0_0" slope="0.00"/>
    </timestep>
    <timestep time="56.00">
        <vehicle id="background.1" x="148.92" y="-1.60" angle="90.00" type="human" speed="12.82" pos="148.92" lane="e0_0" slope="0.00"/>
        <vehicle id="background.2" x="101.14" y="-1.60" angle="90.00" type="human" speed="13.70" pos="101.14" lane="e0_0" slope="0.00"/>
    </timestep>
    <timestep time="56.50">
        <vehicle id="background.1" x="155.43" y="-1.60" angle="90.00" type="human" speed="13.02" pos="155.43" lane="e0_0" slope="0.00"/>
        <vehicle id="background.2" x="108.00" y="-1.60" angle="90.00" type="human" speed="13.73" pos="108.00" lane="e0_0" slope="0.00"/>
    </timestep>
    <timestep time="57.00">
        <vehicle id="background.1" x="162.06" y="-1.60" angle="90.00" type="human" speed="13.27" pos="162.06" lane="e0_0" slope="0.00"/>
        <vehicle id="background.2" x="114.90" y="-1.60" angle="90.00" type="human" speed="13.79" pos="114.90" lane="e0_0" slope="0.00"/>
    </timestep>
    <timestep time="57.50">
        <vehicle id="background.1" x="168.57" y="-1.60" angle="90.00" type="human" speed="13.03" pos="168.57" lane="e0_0" slope="0.00"/>
        <vehicle id="background.2" x="121.61" y="-1.60" angle="90.00" type="human" speed="13.42" pos="121.61" lane="e0_0" slope="0.00"/>
    </timestep>
    <timestep time="58.00">
        <vehicle id="background.1" x="175.06" y="-1.60" angle="90.00" type="human" speed="12.97" pos="175.06" lane="e0_0" slope="0.00"/>
        <vehicle id="background.2" x="128.46" y="-1.60" angle="90.00" type="human" speed="13.70" pos="128.46" lane="e0_0" slope="0.00"/>
    </timestep>
    <timestep time="58.50">
        <vehicle id="background.1" x="181.50" y="-1.60" angle="90.00" type="human" speed="12.89" pos="181.50" lane="e0_0" slope="0.00"/>
        <vehicle id="background.2" x="135.25" y="-1.60" angle="90.00" type="human" speed="13.58" pos="135.25" lane="e0_0" slope="0.00"/>
    </timestep>
    <timestep time="59.00">
        <vehicle id="background.1" x="187.94" y="-1.60" angle="90.00" type="human" speed="12.87" pos="187.94" lane="e0_0" slope="0.00"/>
        <vehicle id="background.2" x="142.11" y="-1.60" angle="90.00" type="human" speed="13.72" pos="142.11" lane="e0_0" slope="0.00"/>
    </timestep>
    <timestep time="59.50">
        <vehicle id="background.1" x="194.52" y="-1.60" angle="90.00" type="human" speed="13.16" pos="194.52" lane="e0_0" slope="0.00"/>
        <vehicle id="background.2" x="148.81" y="-1.60" angle="90.00" type="human" speed="13.41" pos="148.81" lane="e0_0" slope="0.00"/>
    </timestep>
    <timestep time="60.00">
        <vehicle id="background.1" x="200.92" y="-1.60" angle="90.00" type="human" speed="12.80" pos="200.92" lane="e0_0" slope="0.00"/>
        <vehicle id="background.2" x="155.52" y="-1.60" angle="90.00" type="human" speed="13.41" pos="155.52" lane="e0_0" slope="0.00"/>
    </timestep>
    <timestep time="60.50">
        <vehicle id="background.1" x="207.45" y="-1.60" angle="90.00" type="human" speed="13.06" pos="207.45" lane="e0_0" slope="0.00"/>
        <vehicle id="background.2" x="162.43" y="-1.60" angle="90.00" type="human" speed="13.82" pos="162.43" lane="e0_0" slope="0.00"/>
    </timestep>
    <timestep time="61.00">
        <vehicle id="background.1" x="214.03" y="-1.60" angle="90.00" type="human" speed="13.16" pos="214.03" lane="e0_0" slope="0.00"/>
        <vehicle id="background.2" x="169.17" y="-1.60" angle="90.00" type="human" speed="13.49" pos="169.17" lane="e0_0" slope="0.00"/>
    </timestep>
    <timestep time="61.50">
        <vehicle id="background.1" x="220.53" y="-1.60" angle="90.00" type="human" speed="13.01" pos="220.53" lane="e0_0" slope="0.00"/>
        <vehicle id="background.2" x="176.10" y="-1.60" angle="90.00" type="human" speed="13.86" pos="176.10" lane="e0_0" slope="0.00"/>
    </timestep>
    <timestep time="62.00">
        <vehicle id="background.1" x="227.08" y="-1.60" angle="90.00" type="human" speed="13.10" pos="227.08" lane="e0_0" slope="0.00"/>
        <vehicle id="background.2" x="182.89" y="-1.60" angle="90.00" type="human" speed="13.58" pos="182.89" lane="e0_0" slope="0.00"/>
    </timestep>
    <timestep time="62.50">
        <vehicle id="background.1" x="233.68" y="-1.60" angle="90.00" type="human" speed="13.19" pos="233.68" lane="e0_0" slope="0.00"/>
        <vehicle id="background.2" x="189.59" y="-1.60" angle="90.00" type="human" speed="13.39" pos="189.59" lane="e0_0" slope="0.00"/>
    </timestep>
    <timestep time="63.00">
        <vehicle id="background.1" x="240.09" y="-1.60" angle="90.00" type="human" speed="12.83" pos="240.09" lane="e0_0" slope="0.00"/>
        <vehicle id="background.2" x="196.36" y="-1.60" angle="90.00" type="human" speed="13.55" pos="196.36" lane="e0_0" slope="0.00"/>
    </timestep>
    <timestep time="63.50">
        <vehicle id="background.1" x="246.50" y="-1.60" angle="90.00" type="human" speed="12.82" pos="246.50" lane="e0_0" slope="0.00"/>
        <vehicle id="background.2" x="203.08" y="-1.60" angle="90.00" type="human" speed="13.45" pos="203.08" lane="e0_0" slope="0.00"/>
    </timestep>
    <timestep time="64.00">
        <vehicle id="background.1" x="252.94" y="-1.60" angle="90.00" type="human" speed="12.87" pos="252.94" lane="e0_0" slope="0.00"/>
        <vehicle id="background.2" x="209.98" y="-1.60" angle="90.00" type="human" speed="13.78" pos="209.98" lane="e0_0" slope="0.00"/>
    </timestep>
    <timestep time="64.50">
        <vehicle id="background.1" x="259.47" y="-1.60" angle="90.00" type="human" speed="13.07" pos="259.47" lane="e0_0" slope="0.00"/>
        <vehicle id="background.2" x="216.85" y="-1.60" angle="90.00" type="human" speed="13.75" pos="216.85" lane="e0_0" slope="0.00"/>
        <vehicle id="background.3" x="5.10" y="-1.60" angle="90.00" type="human" speed="13.81" pos="5.10" lane="e0_0" slope="0.00"/>
    </timestep>
    <timestep time="65.00">
        <vehicle id="background.1" x="265.94" y="-1.60" angle="90.00" type="human" speed="12.93" pos="265.94" lane="e0_0" slope="0.00"/>
        <vehicle id="background.2" x="223.70" y="-1.60" angle="90.00" type="human" speed="13.69" pos="223.70" lane="e0_0" slope="0.00"/>
        <vehicle id="background.3" x="11.79" y="-1.60" angle="90.00" type="human" speed="13.38" pos="11.79" lane="e0_0" slope="0.00"/>
    </timestep>
    <timestep time="65.50">
        <vehicle id="background.1" x="272.54" y="-1.60" angle="90.00" type="human" speed="13.20" pos="272.54" lane="e0_0" slope="0.00"/>
        <vehicle id="background.2" x="230.62" y="-1.60" angle="90.00" type="human" speed="13.85" pos="230.62" lane="e0_0" slope="0.00"/>
        <vehicle id="background.3" x="18.57" y="-1.60" angle="90.00" type="human" speed="13.56" pos="18.57" lane="e0_0" slope="0.00"/>
    </timestep>
    <timestep time="66.00">
        <vehicle id="background.1" x="279.08" y="-1.60" angle="90.00" type="human" speed="13.08" pos="279.08" lane="e0_0" slope="0.00"/>
        <vehicle id="background.2" x="237.50" y="-1.60" angle="90.00" type="human" speed="13.74" pos="237.50" lane="e0_0" slope="0.00"/>
        <vehicle id="background.3" x="25.31" y="-1.60" angle="90.00" type="human" speed="13.49" pos="25.31" lane="e0_0" slope="0.00"/>
    </timestep>
    <timestep time="66.50">
        <vehicle id="background.1" x="285.14" y="-1.60" angle="90.00" type="human" speed="12.13" pos="285.14" lane="e0_0" slope="0.00"/>
        <vehicle id="background.2" x="244.20" y="-1.60" angle="90.00" type="human" speed="13.40" pos="244.20" lane="e0_0" slope="0.00"/>
        <vehicle id="background.3" x="31.98" y="-1.60" angle="90.00" type="human" speed="13.32" pos="31.98" lane="e0_0" slope="0.00"/>
    </timestep>
    <timestep time="67.00">
        <vehicle id="background.1" x="290.08" y="-1.60" angle="90.00" type="human" speed="9.88" pos="290.08" lane="e0_0" slope="0.00"/>
        <vehicle id="background.2" x="251.10" y="-1.60" angle="90.00" type="human" speed="13.81" pos="251.10" lane="e0_0" slope="0.00"/>
        <vehicle id="background.3" x="38.72" y="-1.60" angle="90.00" type="human" speed="13.49" pos="38.72" lane="e0_0" slope="0.00"/>
    </timestep>
    <timestep time="67.50">
        <vehicle id="background.1" x="293.89" y="-1.60" angle="90.00" type="human" speed="7.63" pos="293.89" lane="e0_0" slope="0.00"/>
        <vehicle id="background.2" x="257.99" y="-1.60" angle="90.00" type="human" speed="13.79" pos="257.99" lane="e0_0" slope="0.00"/>
        <vehicle id="background.3" x="45.45" y="-1.60" angle="90.00" type="human" speed="13.46" pos="45.45" lane="e0_0" slope="0.00"/>
    </timestep>
    <timestep time="68.00">
        <vehicle id="background.1" x="296.65" y="-1.60" angle="90.00" type="human" speed="5.51" pos="296.65" lane="e0_0" slope="0.00"/>
        <vehicle id="background.2" x="264.79" y="-1.60" angle="90.00" type="human" speed="13.58" pos="264.79" lane="e0_0" slope="0.00"/>
        <vehicle id="background.3" x="52.32" y="-1.60" angle="90.00" type="human" speed="13.73" pos="52.32" lane="e0_0" slope="0.00"/>
    </timestep>
    <timestep time="68.50">
        <vehicle id="background.1" x="298.28" y="-1.60" angle="90.00" type="human" speed="3.26" pos="298.28" lane="e0_0" slope="0.00"/>
        <vehicle id="background.2" x="270.91" y="-1.60" angle="90.00" type="human" speed="12.24" pos="270.91" lane="e0_0" slope="0.00"/>
        <vehicle id="background.3" x="59.20" y="-1.60" angle="90.00" type="human" speed="13.77" pos="59.20" lane="e0_0" slope="0.00"/>
    </timestep>
    <timestep time="69.00">
        <vehicle id="background.1" x="298.87" y="-1.60" angle="90.00" type="human" speed="1.19" pos="298.87" lane="e0_0" slope="0.00"/>
        <vehicle id="background.2" x="275.96" y="-1.60" angle="90.00" type="human" speed="10.12" pos="275.96" lane="e0_0" slope="0.00"/>
        <vehicle id="background.3" x="65.87" y="-1.60" angle="90.00" type="human" speed="13.33" pos="65.87" lane="e0_0" slope="0.00"/>
    </timestep>
    <timestep time="69.50">
        <vehicle id="background.1" x="298.97" y="-1.60" angle="90.00" type="human" speed="0.20" pos="298.97" lane="e0_0" slope="0.00"/>
        <vehicle id="background.2" x="280.39" y="-1.60" angle="90.00" type="human" speed="8.85" pos="280.39" lane="e0_0" slope="0.00"/>
        <vehicle id="background.3" x="72.58" y="-1.60" angle="90.00" type="human" speed="13.43" pos="72.58" lane="e0_0" slope="0.00"/>
    </timestep>
    <timestep time="70.00">
        <vehicle id="background.1" x="299.00" y="-1.60" angle="90.00" type="human" speed="0.06" pos="299.00" lane="e0_0" slope="0.00"/>
        <vehicle id="background.2" x="283.73" y="-1.60" angle="90.00" type="human" speed="6.68" pos="283.73" lane="e0_0" slope="0.00"/>
        <vehicle id="background.3" x="79.48" y="-1.60" angle="90.00" type="human" speed="13.78" pos="79.48" lane="e0_0" slope="0.00"/>
    </timestep>
    <timestep time="70.50">
        <vehicle id="background.1" x="299.00" y="-1.60" angle="90.00" type="human" speed="0.00" pos="299.00" lane="e0_0" slope="0.00"/>
        <vehicle id="background.2" x="286.30" y="-1.60" angle="90.00" type="human" speed="5.13" pos="286.30" lane="e0_0" slope="0.00"/>
        <vehicle id="background.3" x="86.20" y="-1.60" angle="90.00" type="human" speed="13.46" pos="86.20" lane="e0_0" slope="0.00"/>
    </timestep>
    <timestep time="71.00">
        <vehicle id="background.1" x="299.00" y="-1.60" angle="90.00" type="human" speed="0.00" pos="299.00" lane="e0_0" slope="0.00"/>
        <vehicle id="background.2" x="288.39" y="-1.60" angle="90.00" type="human" speed="4.19" pos="288.39" lane="e0_0" slope="0.00"/>
        <vehicle id="background.3" x="92.90" y="-1.60" angle="90.00" type="human" speed="13.40" pos="92.90" lane="e0_0" slope="0.00"/>
    </timestep>
    <timestep time="71.50">
        <vehicle id="background.1" x="299.00" y="-1.60" angle="90.00" type="human" speed="0.00" pos="299.00" lane="e0_0" slope="0.00"/>
        <vehicle id="background.2" x="289.57" y="-1.60" angle="90.00" type="human" speed="2.36" pos="289.57" lane="e0_0" slope="0.00"/>
        <vehicle id="background.3" x="99.80" y="-1.60" angle="90.00" type="human" speed="13.79" pos="99.80" lane="e0_0" slope="0.00"/>
    </timestep>
    <timestep time="72.00">
        <vehicle id="background.1" x="299.00" y="-1.60" angle="90.00" type="human" speed="0.00" pos="299.00" lane="e0_0" slope="0.00"/>
        <vehicle id="background.2" x="290.51" y="-1.60" angle="90.00" type="human" speed="1.87" pos="290.51" lane="e0_0" slope="0.00"/>
        <vehicle id="background.3" x="106.59" y="-1.60" angle="90.00" type="human" speed="13.57" pos="106.59" lane="e0_0" slope="0.00"/>
    </timestep>
    <timestep time="72.50">