<?xml version="1.0" encoding="UTF-8"?>

<!-- generated on 2026-05-14 17:05:09 by Eclipse SUMO sumo Version 1.24.0
<sumoConfiguration xmlns:xsi="http://www.w3.org/2001/XMLSchema-instance" xsi:noNamespaceSchemaLocation="http://sumo.dlr.de/xsd/sumoConfiguration.xsd">

    <input>
        <net-file value="scenarios/simple_arterial/simple_arterial.net.xml"/>
        <route-files value="scenarios/simple_arterial/simple_arterial.rou.xml"/>
        <additional-files value="scenarios/simple_arterial/simple_arterial.tls.xml"/>
    </input>

    <output>
        <fcd-output value="runs/fcd_expert_default/episode_00071_seed_113.fcd.xml"/>
    </output>

    <time>
        <begin value="0"/>
        <end value="900"/>
        <step-length value="0.5"/>
    </time>

    <report>
        <no-warnings value="true"/>
    </report>

    <traci_server>
        <remote-port value="24542"/>
    </traci_server>

    <random_number>
        <seed value="113"/>
    </random_number>

</sumoConfiguration>
-->

<fcd-export xmlns:xsi="http://www.w3.org/2001/XMLSchema-instance" xsi:noNamespaceSchemaLocation="http://sumo.dlr.de/xsd/fcd_file.xsd">
    <timestep time="0.00"/>
    <timestep time="0.50"/>
    <timestep time="1.00"/>
    <timestep time="1.50"/>
    <timestep time="2.00"/>
    <timestep time="2.50"/>
    <timestep time="3.00"/>
    <timestep time="3.50"/>
    <timestep time="4.00"/>
    <timestep time="4.50"/>
    <timestep time="5.00"/>
    <timestep time="5.50"/>
    <timestep time="6.00"/>
    <timestep time="6.50">
        <vehicle id="ego" x="5.10" y="-1.60" angle="90.00" type="ego_type" speed="0.00" pos="5.10" lane="e0_0" slope="0.00"/>
    </timestep>
    <timestep time="7.00">
        <vehicle id="ego" x="5.60" y="-1.60" angle="90.00" type="ego_type" speed="1.00" pos="5.60" lane="e0_0" slope="0.00"/>
    </timestep>
    <timestep time="7.50">
        <vehicle id="ego" x="6.60" y="-1.60" angle="90.00" type="ego_type" speed="2.00" pos="6.60" lane="e0_0" slope="0.00"/>
    </timestep>
    <timestep time="8.00">
        <vehicle id="ego" x="8.10" y="-1.60" angle="90.00" type="ego_type" speed="3.00" pos="8.10" lane="e0_0" slope="0.00"/>
    </timestep>
    <timestep time="8.50">
        <vehicle id="ego" x="10.10" y="-1.60" angle="90.00" type="ego_type" speed="4.00" pos="10.10" lane="e0_0" slope="0.00"/>
    </timestep>
    <timestep time="9.00">
        <vehicle id="ego" x="12.60" y="-1.60" angle="90.00" type="ego_type" speed="5.00" pos="12.60" lane="e0_0" slope="0.00"/>
    </timestep>
    <timestep time="9.50">
        <vehicle id="ego" x="15.60" y="-1.60" angle="90.00" type="ego_type" speed="6.00" pos="15.60" lane="e0_0" slope="0.00"/>
    </timestep>
    <timestep time="10.00">
        <vehicle id="ego" x="19.10" y="-1.60" angle="90.00" type="ego_type" speed="7.00" pos="19.10" lane="e0_0" slope="0.00"/>
    </timestep>
    <timestep time="10.50">
        <vehicle id="ego" x="23.10" y="-1.60" angle="90.00" type="ego_type" speed="8.00" pos="23.10" lane="e0_0" slope="0.00"/>
    </timestep>
    <timestep time="11.00">
        <vehicle id="ego" x="27.60" y="-1.60" angle="90.00" type="ego_type" speed="9.00" pos="27.60" lane="e0_0" slope="0.00"/>
    </timestep>
    <timestep time="11.50">
        <vehicle id="ego" x="32.60" y="-1.60" angle="90.00" type="ego_type" speed="10.00" pos="32.60" lane="e0_0" slope="0.00"/>
    </timestep>
    <timestep time="12.00">
        <vehicle id="ego" x="38.10" y="-1.60" angle="90.00" type="ego_type" speed="11.00" pos="38.10" lane="e0_0" slope="0.00"/>
    </timestep>
    <timestep time="12.50">
        <vehicle id="ego" x="44.10" y="-1.60" angle="90.00" type="ego_type" speed="12.00" pos="44.10" lane="e0_0" slope="0.00"/>
    </timestep>
    <timestep time="13.00">
        <vehicle id="ego" x="50.60" y="-1.60" angle="90.00" type="ego_type" speed="13.00" pos="50.60" lane="e0_0" slope="0.00"/>
    </timestep>
    <timestep time="13.50">
        <vehicle id="ego" x="57.28" y="-1.60" angle="90.00" type="ego_type" speed="13.36" pos="57.28" lane="e0_0" slope="0.00"/>
    </timestep>
    <timestep time="14.00">
        <vehicle id="ego" x="63.96" y="-1.60" angle="90.00" type="ego_type" speed="13.36" pos="63.96" lane="e0_0" slope="0.00"/>
    </timestep>
    <timestep time="14.50">
        <vehicle id="ego" x="70.64" y="-1.60" angle="90.00" type="ego_type" speed="13.36" pos="70.64" lane="e0_0" slope="0.00"/>
    </timestep>
    <timestep time="15.00">
        <vehicle id="ego" x="77.32" y="-1.60" angle="90.00" type="ego_type" speed="13.36" pos="77.32" lane="e0_0" slope="0.00"/>
    </timestep>
    <timestep time="15.50">
        <vehicle id="ego" x="84.00" y="-1.60" angle="90.00" type="ego_type" speed="13.36" pos="84.00" lane="e0_0" slope="0.00"/>
    </timestep>
    <timestep time="16.00">
        <vehicle id="ego" x="90.68" y="-1.60" angle="90.00" type="ego_type" speed="13.36" pos="90.68" lane="e0_0" slope="0.00"/>
    </timestep>
    <timestep time="16.50">
        <vehicle id="ego" x="97.36" y="-1.60" angle="90.00" type="ego_type" speed="13.36" pos="97.36" lane="e0_0" slope="0.00"/>
    </timestep>
    <timestep time="17.00">
        <vehicle id="ego" x="104.04" y="-1.60" angle="90.00" type="ego_type" speed="13.36" pos="104.04" lane="e0_0" slope="0.00"/>
    </timestep>
    <timestep time="17.50">
        <vehicle id="ego" x="110.72" y="-1.60" angle="90.00" type="ego_type" speed="13.36" pos="110.72" lane="e0_0" slope="0.00"/>
    </timestep>
    <timestep time="18.00">
        <vehicle id="ego" x="117.40" y="-1.60" angle="90.00" type="ego_type" speed="13.36" pos="117.40" lane="e0_0" slope="0.00"/>
    </timestep>
    <timestep time="18.50">
        <vehicle id="ego" x="124.08" y="-1.60" angle="90.00" type="ego_type" speed="13.36" pos="124.08" lane="e0_0" slope="0.00"/>
    </timestep>
    <timestep time="19.00">
        <vehicle id="ego" x="130.76" y="-1.60" angle="90.00" type="ego_type" speed="13.36" pos="130.76" lane="e0_0" slope="0.00"/>
    </timestep>
    <timestep time="19.50">
        <vehicle id="ego" x="137.44" y="-1.60" angle="90.00" type="ego_type" speed="13.36" pos="137.44" lane="e0_0" slope="0.00"/>
    </timestep>
    <timestep time="20.00">
        <vehicle id="ego" x="144.12" y="-1.60" angle="90.00" type="ego_type" speed="13.36" pos="144.12" lane="e0_0" slope="0.00"/>
    </timestep>
    <timestep time="20.50">
        <vehicle id="ego" x="150.80" y="-1.60" angle="90.00" type="ego_type" speed="13.36" pos="150.80" lane="e0_0" slope="0.00"/>
    </timestep>
    <timestep time="21.00">
        <vehicle id="ego" x="157.48" y="-1.60" angle="90.00" type="ego_type" speed="13.36" pos="157.48" lane="e0_0" slope="0.00"/>
    </timestep>
    <timestep time="21.50">
        <vehicle id="ego" x="164.15" y="-1.60" angle="90.00" type="ego_type" speed="13.36" pos="164.15" lane="e0_0" slope="0.00"/>
    </timestep>
    <timestep time="22.00">
        <vehicle id="ego" x="170.83" y="-1.60" angle="90.00" type="ego_type" speed="13.36" pos="170.83" lane="e0_0" slope="0.00"/>
    </timestep>
    <timestep time="22.50">
        <vehicle id="ego" x="177.51" y="-1.60" angle="90.00" type="ego_type" speed="13.36" pos="177.51" lane="e0_0" slope="0.00"/>
    </timestep>
    <timestep time="23.00">
        <vehicle id="ego" x="184.19" y="-1.60" angle="90.00" type="ego_type" speed="13.36" pos="184.19" lane="e0_0" slope="0.00"/>
    </timestep>
    <timestep time="23.50">
        <vehicle id="ego" x="190.87" y="-1.60" angle="90.00" type="ego_type" speed="13.36" pos="190.87" lane="e0_0" slope="0.00"/>
    </timestep>
    <timestep time="24.00">
        <vehicle id="ego" x="197.55" y="-1.60" angle="90.00" type="ego_type" speed="13.36" pos="197.55" lane="e0_0" slope="0.00"/>
    </timestep>
    <timestep time="24.50">
        <vehicle id="ego" x="204.23" y="-1.60" angle="90.00" type="ego_type" speed="13.36" pos="204.23" lane="e0_0" slope="0.00"/>
    </timestep>
    <timestep time="25.00">
        <vehicle id="ego" x="210.91" y="-1.60" angle="90.00" type="ego_type" speed="13.36" pos="210.91" lane="e0_0" slope="0.00"/>
    </timestep>
    <timestep time="25.50">
        <vehicle id="ego" x="217.59" y="-1.60" angle="90.00" type="ego_type" speed="13.36" pos="217.59" lane="e0_0" slope="0.00"/>
    </timestep>
    <timestep time="26.00">
        <vehicle id="ego" x="224.27" y="-1.60" angle="90.00" type="ego_type" speed="13.36" pos="224.27" lane="e0_0" slope="0.00"/>
    </timestep>
    <timestep time="26.50">
        <vehicle id="ego" x="230.95" y="-1.60" angle="90.00" type="ego_type" speed="13.36" pos="230.95" lane="e0_0" slope="0.00"/>
    </timestep>
    <timestep time="27.00">
        <vehicle id="ego" x="237.63" y="-1.60" angle="90.00" type="ego_type" speed="13.36" pos="237.63" lane="e0_0" slope="0.00"/>
    </timestep>
    <timestep time="27.50">
        <vehicle id="ego" x="244.31" y="-1.60" angle="90.00" type="ego_type" speed="13.36" pos="244.31" lane="e0_0" slope="0.00"/>
    </timestep>
    <timestep time="28.00">
        <vehicle id="ego" x="250.99" y="-1.60" angle="90.00" type="ego_type" speed="13.36" pos="250.99" lane="e0_0" slope="0.00"/>
    </timestep>
    <timestep time="28.50">
        <vehicle id="ego" x="257.67" y="-1.60" angle="90.00" type="ego_type" speed="13.36" pos="257.67" lane="e0_0" slope="0.00"/>
    </timestep>
    <timestep time="29.00">
        <vehicle id="ego" x="264.35" y="-1.60" angle="90.00" type="ego_type" speed="13.36" pos="264.35" lane="e0_0" slope="0.00"/>
    </timestep>
    <timestep time="29.50">
        <vehicle id="ego" x="271.03" y="-1.60" angle="90.00" type="ego_type" speed="13.36" pos="271.03" lane="e0_0" slope="0.00"/>
    </timestep>
    <timestep time="30.00">
        <vehicle id="ego" x="277.71" y="-1.60" angle="90.00" type="ego_type" speed="13.36" pos="277.71" lane="e0_0" slope="0.00"/>
    </timestep>
    <timestep time="30.50">
        <vehicle id="ego" x="284.39" y="-1.60" angle="90.00" type="ego_type" speed="13.36" pos="284.39" lane="e0_0" slope="0.00"/>
    </timestep>
    <timestep time="31.00">
        <vehicle id="ego" x="291.07" y="-1.60" angle="90.00" type="ego_type" speed="13.36" pos="291.07" lane="e0_0" slope="0.00"/>
    </timestep>
    <timestep time="31.50">
        <vehicle id="background.0" x="5.10" y="-1.60" angle="90.00" type="human" speed="13.36" pos="5.10" lane="e0_0" slope="0.00"/>
        <vehicle id="ego" x="297.75" y="-1.60" angle="90.00" type="ego_type" speed="13.36" pos="297.75" lane="e0_0" slope="0.00"/>
    </timestep>
    <timestep time="32.00">
        <vehicle id="background.0" x="11.68" y="-1.60" angle="90.00" type="human" speed="13.17" pos="11.68" lane="e0_0" slope="0.00"/>
        <vehicle id="ego" x="304.33" y="-1.60" angle="90.00" type="ego_type" speed="13.36" pos="4.33" lane="e1_0" slope="0.00"/>
    </timestep>
    <timestep time="32.50">
        <vehicle id="background.0" x="18.24" y="-1.60" angle="90.00" type="human" speed="13.10" pos="18.24" lane="e0_0" slope="0.00"/>
        <vehicle id="ego" x="311.01" y="-1.60" angle="90.00" type="ego_type" speed="13.36" pos="11.01" lane="e1_0" slope="0.00"/>
    </timestep>
    <timestep time="33.00">
        <vehicle id="background.0" x="24.75" y="-1.60" angle="90.00" type="human" speed="13.02" pos="24.75" lane="e0_0" slope="0.00"/>
        <vehicle id="ego" x="317.69" y="-1.60" angle="90.00" type="ego_type" speed="13.36" pos="17.69" lane="e1_0" slope="0.00"/>
    </timestep>
    <timestep time="33.50">
        <vehicle id="background.0" x="31.42" y="-1.60" angle="90.00" type="human" speed="13.35" pos="31.42" lane="e0_0" slope="0.00"/>
        <vehicle id="ego" x="324.37" y="-1.60" angle="90.00" type="ego_type" speed="13.36" pos="24.37" lane="e1_0" slope="0.00"/>
    </timestep>
    <timestep time="34.00">
        <vehicle id="background.0" x="38.06" y="-1.60" angle="90.00" type="human" speed="13.29" pos="38.06" lane="e0_0" slope="0.00"/>
        <vehicle id="ego" x="331.05" y="-1.60" angle="90.00" type="ego_type" speed="13.36" pos="31.05" lane="e1_0" slope="0.00"/>
    </timestep>
    <timestep time="34.50">
        <vehicle id="background.0" x="44.66" y="-1.60" angle="90.00" type="human" speed="13.19" pos="44.66" lane="e0_0" slope="0.00"/>
        <vehicle id="ego" x="337.73" y="-1.60" angle="90.00" type="ego_type" speed="13.36" pos="37.73" lane="e1_0" slope="0.00"/>
    </timestep>
    <timestep time="35.00">
        <vehicle id="background.0" x="51.28" y="-1.60" angle="90.00" type="human" speed="13.25" pos="51.28" lane="e0_0" slope="0.00"/>
        <vehicle id="ego" x="344.41" y="-1.60" angle="90.00" type="ego_type" speed="13.36" pos="44.41" lane="e1_0" slope="0.00"/>
    </timestep>
    <timestep time="35.50">
        <vehicle id="background.0" x="57.71" y="-1.60" angle="90.00" type="human" speed="12.87" pos="57.71" lane="e0_0" slope="0.00"/>
    </timestep>
</fcd-export>
