<?xml version="1.0" encoding="UTF-8"?>

<!-- generated on 2026-05-14 17:04:23 by Eclipse SUMO sumo Version 1.24.0
<sumoConfiguration xmlns:xsi="http://www.w3.org/2001/XMLSchema-instance" xsi:noNamespaceSchemaLocation="http://sumo.dlr.de/xsd/sumoConfiguration.xsd">

    <input>
        <net-file value="scenarios/simple_arterial/simple_arterial.net.xml"/>
        <route-files value="scenarios/simple_arterial/simple_arterial.rou.xml"/>
        <additional-files value="scenarios/simple_arterial/simple_arterial.tls.xml"/>
    </input>

    <output>
        <fcd-output value="runs/fcd_expert_default/episode_00031_seed_73.fcd.xml"/>
    </output>

    <time>
        <begin value="0"/>
        <end value="900"/>
        <step-length value="0.5"/>
    </time>

    <report>
        <no-warnings value="true"/>
    </report>

    <traci_server>
        <remote-port value="24542"/>
    </traci_server>

    <random_number>
        <seed value="73"/>
    </random_number>

</sumoConfiguration>
-->

<fcd-export xmlns:xsi="http://www.w3.org/2001/XMLSchema-instance" xsi:noNamespaceSchemaLocation="http://sumo.dlr.de/xsd/fcd_file.xsd">
    <timestep time="0.00"/>
    <timestep time="0.50"/>
    <timestep time="1.00"/>
    <timestep time="1.50"/>
    <timestep time="2.00"/>
    <timestep time="2.50"/>
    <timestep time="3.00"/>
    <timestep time="3.50"/>
    <timestep time="4.00"/>
    <timestep time="4.50"/>
    <timestep time="5.00"/>
    <timestep time="5.50"/>
    <timestep time="6.00"/>
    <timestep time="6.50"/>
    <timestep time="7.00"/>
    <timestep time="7.50"/>
    <timestep time="8.00"/>
    <timestep time="8.50"/>
    <timestep time="9.00"/>
    <timestep time="9.50"/>
    <timestep time="10.00"/>
    <timestep time="10.50"/>
    <timestep time="11.00"/>
    <timestep time="11.50"/>
    <timestep time="12.00"/>
    <timestep time="12.50"/>
    <timestep time="13.00"/>
    <timestep time="13.50"/>
    <timestep time="14.00"/>
    <timestep time="14.50"/>
    <timestep time="15.00"/>
    <timestep time="15.50"/>
    <timestep time="16.00"/>
    <timestep time="16.50"/>
    <timestep time="17.00"/>
    <timestep time="17.50"/>
    <timestep time="18.00"/>
    <timestep time="18.50"/>
    <timestep time="19.00"/>
    <timestep time="19.50"/>
    <timestep time="20.00"/>
    <timestep time="20.50"/>
    <timestep time="21.00"/>
    <timestep time="21.50"/>
    <timestep time="22.00"/>
    <timestep time="22.50"/>
    <timestep time="23.00"/>
    <timestep time="23.50"/>
    <timestep time="24.00">
        <vehicle id="background.0" x="5.10" y="-1.60" angle="90.00" type="human" speed="13.89" pos="5.10" lane="e0_0" slope="0.00"/>
    </timestep>
    <timestep time="24.50">
        <vehicle id="background.0" x="11.99" y="-1.60" angle="90.00" type="human" speed="13.79" pos="11.99" lane="e0_0" slope="0.00"/>
    </timestep>
    <timestep time="25.00">
        <vehicle id="background.0" x="18.83" y="-1.60" angle="90.00" type="human" speed="13.68" pos="18.83" lane="e0_0" slope="0.00"/>
    </timestep>
    <timestep time="25.50">
        <vehicle id="background.0" x="25.58" y="-1.60" angle="90.00" type="human" speed="13.50" pos="25.58" lane="e0_0" slope="0.00"/>
    </timestep>
    <timestep time="26.00">
        <vehicle id="background.0" x="32.30" y="-1.60" angle="90.00" type="human" speed="13.42" pos="32.30" lane="e0_0" slope="0.00"/>
    </timestep>
    <timestep time="26.50">
        <vehicle id="background.0" x="39.03" y="-1.60" angle="90.00" type="human" speed="13.46" pos="39.03" lane="e0_0" slope="0.00"/>
    </timestep>
    <timestep time="27.00">
        <vehicle id="background.0" x="45.94" y="-1.60" angle="90.00" type="human" speed="13.84" pos="45.94" lane="e0_0" slope="0.00"/>
    </timestep>
    <timestep time="27.50">
        <vehicle id="background.0" x="52.81" y="-1.60" angle="90.00" type="human" speed="13.73" pos="52.81" lane="e0_0" slope="0.00"/>
    </timestep>
    <timestep time="28.00">
        <vehicle id="background.0" x="59.61" y="-1.60" angle="90.00" type="human" speed="13.61" pos="59.61" lane="e0_0" slope="0.00"/>
    </timestep>
    <timestep time="28.50">
        <vehicle id="background.0" x="66.50" y="-1.60" angle="90.00" type="human" speed="13.77" pos="66.50" lane="e0_0" slope="0.00"/>
    </timestep>
    <timestep time="29.00">
        <vehicle id="background.0" x="73.27" y="-1.60" angle="90.00" type="human" speed="13.55" pos="73.27" lane="e0_0" slope="0.00"/>
    </timestep>
    <timestep time="29.50">
        <vehicle id="background.0" x="80.01" y="-1.60" angle="90.00" type="human" speed="13.48" pos="80.01" lane="e0_0" slope="0.00"/>
    </timestep>
    <timestep time="30.00">
        <vehicle id="background.0" x="86.74" y="-1.60" angle="90.00" type="human" speed="13.47" pos="86.74" lane="e0_0" slope="0.00"/>
    </timestep>
    <timestep time="30.50">
        <vehicle id="background.0" x="93.51" y="-1.60" angle="90.00" type="human" speed="13.53" pos="93.51" lane="e0_0" slope="0.00"/>
    </timestep>
    <timestep time="31.00">
        <vehicle id="background.0" x="100.33" y="-1.60" angle="90.00" type="human" speed="13.64" pos="100.33" lane="e0_0" slope="0.00"/>
    </timestep>
    <timestep time="31.50">
        <vehicle id="background.0" x="107.11" y="-1.60" angle="90.00" type="human" speed="13.56" pos="107.11" lane="e0_0" slope="0.00"/>
    </timestep>
    <timestep time="32.00">
        <vehicle id="background.0" x="114.03" y="-1.60" angle="90.00" type="human" speed="13.84" pos="114.03" lane="e0_0" slope="0.00"/>
    </timestep>
    <timestep time="32.50">
        <vehicle id="background.0" x="120.80" y="-1.60" angle="90.00" type="human" speed="13.53" pos="120.80" lane="e0_0" slope="0.00"/>
    </timestep>
    <timestep time="33.00">
        <vehicle id="background.0" x="127.67" y="-1.60" angle="90.00" type="human" speed="13.75" pos="127.67" lane="e0_0" slope="0.00"/>
    </timestep>
    <timestep time="33.50">
        <vehicle id="background.0" x="134.59" y="-1.60" angle="90.00" type="human" speed="13.83" pos="134.59" lane="e0_0" slope="0.00"/>
    </timestep>
    <timestep time="34.00">
        <vehicle id="background.0" x="141.30" y="-1.60" angle="90.00" type="human" speed="13.41" pos="141.30" lane="e0_0" slope="0.00"/>
    </timestep>
    <timestep time="34.50">
        <vehicle id="background.0" x="148.02" y="-1.60" angle="90.00" type="human" speed="13.46" pos="148.02" lane="e0_0" slope="0.00"/>
    </timestep>
    <timestep time="35.00">
        <vehicle id="background.0" x="154.79" y="-1.60" angle="90.00" type="human" speed="13.53" pos="154.79" lane="e0_0" slope="0.00"/>
    </timestep>
    <timestep time="35.50">
        <vehicle id="background.0" x="161.61" y="-1.60" angle="90.00" type="human" speed="13.65" pos="161.61" lane="e0_0" slope="0.00"/>
    </timestep>
    <timestep time="36.00">
        <vehicle id="background.0" x="168.51" y="-1.60" angle="90.00" type="human" speed="13.79" pos="168.51" lane="e0_0" slope="0.00"/>
    </timestep>
    <timestep time="36.50">
        <vehicle id="background.0" x="175.43" y="-1.60" angle="90.00" type="human" speed="13.85" pos="175.43" lane="e0_0" slope="0.00"/>
    </timestep>
    <timestep time="37.00">
        <vehicle id="background.0" x="182.31" y="-1.60" angle="90.00" type="human" speed="13.76" pos="182.31" lane="e0_0" slope="0.00"/>
    </timestep>
    <timestep time="37.50">
        <vehicle id="background.0" x="189.22" y="-1.60" angle="90.00" type="human" speed="13.82" pos="189.22" lane="e0_0" slope="0.00"/>
    </timestep>
    <timestep time="38.00">
        <vehicle id="background.0" x="196.07" y="-1.60" angle="90.00" type="human" speed="13.69" pos="196.07" lane="e0_0" slope="0.00"/>
    </timestep>
    <timestep time="38.50">
        <vehicle id="background.0" x="202.93" y="-1.60" angle="90.00" type="human" speed="13.73" pos="202.93" lane="e0_0" slope="0.00"/>
    </timestep>
    <timestep time="39.00">
        <vehicle id="background.0" x="209.84" y="-1.60" angle="90.00" type="human" speed="13.81" pos="209.84" lane="e0_0" slope="0.00"/>
    </timestep>
    <timestep time="39.50">
        <vehicle id="background.0" x="216.78" y="-1.60" angle="90.00" type="human" speed="13.89" pos="216.78" lane="e0_0" slope="0.00"/>
    </timestep>
    <timestep time="40.00">
        <vehicle id="background.0" x="223.52" y="-1.60" angle="90.00" type="human" speed="13.47" pos="223.52" lane="e0_0" slope="0.00"/>
    </timestep>
    <timestep time="40.50">
        <vehicle id="background.0" x="230.28" y="-1.60" angle="90.00" type="human" speed="13.53" pos="230.28" lane="e0_0" slope="0.00"/>
    </timestep>
    <timestep time="41.00">
        <vehicle id="background.0" x="237.07" y="-1.60" angle="90.00" type="human" speed="13.58" pos="237.07" lane="e0_0" slope="0.00"/>
    </timestep>
    <timestep time="41.50">
        <vehicle id="background.0" x="244.00" y="-1.60" angle="90.00" type="human" speed="13.86" pos="244.00" lane="e0_0" slope="0.00"/>
    </timestep>
    <timestep time="42.00">
        <vehicle id="background.0" x="250.77" y="-1.60" angle="90.00" type="human" speed="13.54" pos="250.77" lane="e0_0" slope="0.00"/>
    </timestep>
    <timestep time="42.50">
        <vehicle id="background.0" x="257.61" y="-1.60" angle="90.00" type="human" speed="13.68" pos="257.61" lane="e0_0" slope="0.00"/>
    </timestep>
    <timestep time="43.00">
        <vehicle id="background.0" x="264.31" y="-1.60" angle="90.00" type="human" speed="13.40" pos="264.31" lane="e0_0" slope="0.00"/>
    </timestep>
    <timestep time="43.50">
        <vehicle id="background.0" x="271.05" y="-1.60" angle="90.00" type="human" speed="13.49" pos="271.05" lane="e0_0" slope="0.00"/>
    </timestep>
    <timestep time="44.00">
        <vehicle id="background.0" x="277.76" y="-1.60" angle="90.00" type="human" speed="13.41" pos="277.76" lane="e0_0" slope="0.00"/>
    </timestep>
    <timestep time="44.50">
        <vehicle id="background.0" x="284.70" y="-1.60" angle="90.00" type="human" speed="13.88" pos="284.70" lane="e0_0" slope="0.00"/>
        <vehicle id="ego" x="5.10" y="-1.60" angle="90.00" type="ego_type" speed="0.00" pos="5.10" lane="e0_0" slope="0.00"/>
    </timestep>
    <timestep time="45.00">
        <vehicle id="background.0" x="289.81" y="-1.60" angle="90.00" type="human" speed="10.22" pos="289.81" lane="e0_0" slope="0.00"/>
        <vehicle id="ego" x="5.60" y="-1.60" angle="90.00" type="ego_type" speed="1.00" pos="5.60" lane="e0_0" slope="0.00"/>
    </timestep>
    <timestep time="45.50">
        <vehicle id="background.0" x="293.79" y="-1.60" angle="90.00" type="human" speed="7.97" pos="293.79" lane="e0_0" slope="0.00"/>
        <vehicle id="ego" x="6.60" y="-1.60" angle="90.00" type="ego_type" speed="2.00" pos="6.60" lane="e0_0" slope="0.00"/>
    </timestep>
    <timestep time="46.00">
        <vehicle id="background.0" x="296.65" y="-1.60" angle="90.00" type="human" speed="5.72" pos="296.65" lane="e0_0" slope="0.00"/>
        <vehicle id="ego" x="8.10" y="-1.60" angle="90.00" type="ego_type" speed="3.00" pos="8.10" lane="e0_0" slope="0.00"/>
    </timestep>
    <timestep time="46.50">
        <vehicle id="background.0" x="298.39" y="-1.60" angle="90.00" type="human" speed="3.47" pos="298.39" lane="e0_0" slope="0.00"/>
        <vehicle id="ego" x="10.10" y="-1.60" angle="90.00" type="ego_type" speed="4.00" pos="10.10" lane="e0_0" slope="0.00"/>
    </timestep>
    <timestep time="47.00">
        <vehicle id="background.0" x="299.00" y="-1.60" angle="90.00" type="human" speed="1.22" pos="299.00" lane="e0_0" slope="0.00"/>
        <vehicle id="ego" x="12.60" y="-1.60" angle="90.00" type="ego_type" speed="5.00" pos="12.60" lane="e0_0" slope="0.00"/>
    </timestep>
    <timestep time="47.50">
        <vehicle id="background.0" x="299.00" y="-1.60" angle="90.00" type="human" speed="0.00" pos="299.00" lane="e0_0" slope="0.00"/>
        <vehicle id="ego" x="15.60" y="-1.60" angle="90.00" type="ego_type" speed="6.00" pos="15.60" lane="e0_0" slope="0.00"/>
    </timestep>
    <timestep time="48.00">
        <vehicle id="background.0" x="299.00" y="-1.60" angle="90.00" type="human" speed="0.00" pos="299.00" lane="e0_0" slope="0.00"/>
        <vehicle id="ego" x="19.10" y="-1.60" angle="90.00" type="ego_type" speed="7.00" pos="19.10" lane="e0_0" slope="0.00"/>
    </timestep>
    <timestep time="48.50">
        <vehicle id="background.0" x="299.00" y="-1.60" angle="90.00" type="human" speed="0.00" pos="299.00" lane="e0_0" slope="0.00"/>
        <vehicle id="ego" x="23.10" y="-1.60" angle="90.00" type="ego_type" speed="8.00" pos="23.10" lane="e0_0" slope="0.00"/>
    </timestep>
    <timestep time="49.00">
        <vehicle id="background.0" x="299.00" y="-1.60" angle="90.00" type="human" speed="0.00" pos="299.00" lane="e0_0" slope="0.00"/>
        <vehicle id="ego" x="27.60" y="-1.60" angle="90.00" type="ego_type" speed="9.00" pos="27.60" lane="e0_0" slope="0.00"/>
    </timestep>
    <timestep time="49.50">
        <vehicle id="background.0" x="299.00" y="-1.60" angle="90.00" type="human" speed="0.00" pos="299.00" lane="e0_0" slope="0.00"/>
        <vehicle id="ego" x="32.60" y="-1.60" angle="90.00" type="ego_type" speed="10.00" pos="32.60" lane="e0_0" slope="0.00"/>
    </timestep>
    <timestep time="50.00">
        <vehicle id="background.0" x="299.00" y="-1.60" angle="90.00" type="human" speed="0.00" pos="299.00" lane="e0_0" slope="0.00"/>
        <vehicle id="ego" x="38.10" y="-1.60" angle="90.00" type="ego_type" speed="11.00" pos="38.10" lane="e0_0" slope="0.00"/>
    </timestep>
    <timestep time="50.50">
        <vehicle id="background.0" x="299.00" y="-1.60" angle="90.00" type="human" speed="0.00" pos="299.00" lane="e0_0" slope="0.00"/>
        <vehicle id="background.1" x="5.10" y="-1.60" angle="90.00" type="human" speed="13.89" pos="5.10" lane="e0_0" slope="0.00"/>
        <vehicle id="ego" x="44.10" y="-1.60" angle="90.00" type="ego_type" speed="12.00" pos="44.10" lane="e0_0" slope="0.00"/>
    </timestep>
    <timestep time="51.00">
        <vehicle id="background.0" x="299.00" y="-1.60" angle="90.00" type="human" speed="0.00" pos="299.00" lane="e0_0" slope="0.00"/>
        <vehicle id="background.1" x="12.03" y="-1.60" angle="90.00" type="human" speed="13.87" pos="12.03" lane="e0_0" slope="0.00"/>
        <vehicle id="ego" x="50.60" y="-1.60" angle="90.00" type="ego_type" speed="13.00" pos="50.60" lane="e0_0" slope="0.00"/>
    </timestep>
    <timestep time="51.50">
        <vehicle id="background.0" x="299.00" y="-1.60" angle="90.00" type="human" speed="0.00" pos="299.00" lane="e0_0" slope="0.00"/>
        <vehicle id="background.1" x="18.79" y="-1.60" angle="90.00" type="human" speed="13.52" pos="18.79" lane="e0_0" slope="0.00"/>
        <vehicle id="ego" x="57.55" y="-1.60" angle="90.00" type="ego_type" speed="13.89" pos="57.55" lane="e0_0" slope="0.00"/>
    </timestep>
    <timestep time="52.00">
        <vehicle id="background.0" x="299.00" y="-1.60" angle="90.00" type="human" speed="0.00" pos="299.00" lane="e0_0" slope="0.00"/>
        <vehicle id="background.1" x="25.57" y="-1.60" angle="90.00" type="human" speed="13.56" pos="25.57" lane="e0_0" slope="0.00"/>
        <vehicle id="ego" x="64.49" y="-1.60" angle="90.00" type="ego_type" speed="13.89" pos="64.49" lane="e0_0" slope="0.00"/>
    </timestep>
    <timestep time="52.50">
        <vehicle id="background.0" x="299.00" y="-1.60" angle="90.00" type="human" speed="0.00" pos="299.00" lane="e0_0" slope="0.00"/>
        <vehicle id="background.1" x="32.39" y="-1.60" angle="90.00" type="human" speed="13.65" pos="32.39" lane="e0_0" slope="0.00"/>
        <vehicle id="ego" x="71.44" y="-1.60" angle="90.00" type="ego_type" speed="13.89" pos="71.44" lane="e0_0" slope="0.00"/>
    </timestep>
    <timestep time="53.00">
        <vehicle id="background.0" x="299.00" y="-1.60" angle="90.00" type="human" speed="0.00" pos="299.00" lane="e0_0" slope="0.00"/>
        <vehicle id="background.1" x="39.18" y="-1.60" angle="90.00" type="human" speed="13.58" pos="39.18" lane="e0_0" slope="0.00"/>
        <vehicle id="ego" x="78.38" y="-1.60" angle="90.00" type="ego_type" speed="13.89" pos="78.38" lane="e0_0" slope="0.00"/>
    </timestep>
    <timestep time="53.50">
        <vehicle id="background.0" x="299.00" y="-1.60" angle="90.00" type="human" speed="0.00" pos="299.00" lane="e0_0" slope="0.00"/>
        <vehicle id="background.1" x="45.96" y="-1.60" angle="90.00" type="human" speed="13.56" pos="45.96" lane="e0_0" slope="0.00"/>
        <vehicle id="ego" x="85.32" y="-1.60" angle="90.00" type="ego_type" speed="13.89" pos="85.32" lane="e0_0" slope="0.00"/>
    </timestep>
    <timestep time="54.00">
        <vehicle id="background.0" x="299.00" y="-1.60" angle="90.00" type="human" speed="0.00" pos="299.00" lane="e0_0" slope="0.00"/>
        <vehicle id="background.1" x="52.78" y="-1.60" angle="90.00" type="human" speed="13.64" pos="52.78" lane="e0_0" slope="0.00"/>
        <vehicle id="ego" x="92.27" y="-1.60" angle="90.00" type="ego_type" speed="13.89" pos="92.27" lane="e0_0" slope="0.00"/>
    </timestep>
    <timestep time="54.50">
        <vehicle id="background.0" x="299.00" y="-1.60" angle="90.00" type="human" speed="0.00" pos="299.00" lane="e0_0" slope="0.00"/>
        <vehicle id="background.1" x="59.68" y="-1.60" angle="90.00" type="human" speed="13.79" pos="59.68" lane="e0_0" slope="0.00"/>
        <vehicle id="ego" x="99.21" y="-1.60" angle="90.00" type="ego_type" speed="13.89" pos="99.21" lane="e0_0" slope="0.00"/>
    </timestep>
    <timestep time="55.00">
        <vehicle id="background.0" x="299.00" y="-1.60" angle="90.00" type="human" speed="0.00" pos="299.00" lane="e0_0" slope="0.00"/>
        <vehicle id="background.1" x="66.40" y="-1.60" angle="90.00" type="human" speed="13.45" pos="66.40" lane="e0_0" slope="0.00"/>
        <vehicle id="ego" x="106.16" y="-1.60" angle="90.00" type="ego_type" speed="13.89" pos="106.16" lane="e0_0" slope="0.00"/>
    </timestep>
    <timestep time="55.50">
        <vehicle id="background.0" x="299.00" y="-1.60" angle="90.00" type="human" speed="0.00" pos="299.00" lane="e0_0" slope="0.00"/>
        <vehicle id="background.1" x="73.17" y="-1.60" angle="90.00" type="human" speed="13.54" pos="73.17" lane="e0_0" slope="0.00"/>
        <vehicle id="ego" x="113.10" y="-1.60" angle="90.00" type="ego_type" speed="13.89" pos="113.10" lane="e0_0" slope="0.00"/>
    </timestep>
    <timestep time="56.00">
        <vehicle id="background.0" x="299.00" y="-1.60" angle="90.00" type="human" speed="0.00" pos="299.00" lane="e0_0" slope="0.00"/>
        <vehicle id="background.1" x="79.90" y="-1.60" angle="90.00" type="human" speed="13.46" pos="79.90" lane="e0_0" slope="0.00"/>
        <vehicle id="ego" x="120.05" y="-1.60" angle="90.00" type="ego_type" speed="13.89" pos="120.05" lane="e0_0" slope="0.00"/>
    </timestep>
    <timestep time="56.50">
        <vehicle id="background.0" x="299.00" y="-1.60" angle="90.00" type="human" speed="0.00" pos="299.00" lane="e0_0" slope="0.00"/>
        <vehicle id="background.1" x="86.78" y="-1.60" angle="90.00" type="human" speed="13.76" pos="86.78" lane="e0_0" slope="0.00"/>
        <vehicle id="ego" x="126.99" y="-1.60" angle="90.00" type="ego_type" speed="13.89" pos="126.99" lane="e0_0" slope="0.00"/>
    </timestep>
    <timestep time="57.00">
        <vehicle id="background.0" x="299.00" y="-1.60" angle="90.00" type="human" speed="0.00" pos="299.00" lane="e0_0" slope="0.00"/>
        <vehicle id="background.1" x="93.59" y="-1.60" angle="90.00" type="human" speed="13.62" pos="93.59" lane="e0_0" slope="0.00"/>
        <vehicle id="background.2" x="5.10" y="-1.60" angle="90.00" type="human" speed="13.89" pos="5.10" lane="e0_0" slope="0.00"/>
        <vehicle id="ego" x="133.94" y="-1.60" angle="90.00" type="ego_type" speed="13.89" pos="133.94" lane="e0_0" slope="0.00"/>
    </timestep>
    <timestep time="57.50">
        <vehicle id="background.0" x="299.00" y="-1.60" angle="90.00" type="human" speed="0.00" pos="299.00" lane="e0_0" slope="0.00"/>
        <vehicle id="background.1" x="100.41" y="-1.60" angle="90.00" type="human" speed="13.65" pos="100.41" lane="e0_0" slope="0.00"/>
        <vehicle id="background.2" x="11.95" y="-1.60" angle="90.00" type="human" speed="13.70" pos="11.95" lane="e0_0" slope="0.00"/>
        <vehicle id="ego" x="140.88" y="-1.60" angle="90.00" type="ego_type" speed="13.89" pos="140.88" lane="e0_0" slope="0.00"/>
    </timestep>
    <timestep time="58.00">
        <vehicle id="background.0" x="299.00" y="-1.60" angle="90.00" type="human" speed="0.00" pos="299.00" lane="e0_0" slope="0.00"/>
        <vehicle id="background.1" x="107.12" y="-1.60" angle="90.00" type="human" speed="13.42" pos="107.12" lane="e0_0" slope="0.00"/>
        <vehicle id="background.2" x="18.68" y="-1.60" angle="90.00" type="human" speed="13.45" pos="18.68" lane="e0_0" slope="0.00"/>
        <vehicle id="ego" x="147.83" y="-1.60" angle="90.00" type="ego_type" speed="13.89" pos="147.83" lane="e0_0" slope="0.00"/>
    </timestep>
    <timestep time="58.50">
        <vehicle id="background.0" x="299.00" y="-1.60" angle="90.00" type="human" speed="0.00" pos="299.00" lane="e0_0" slope="0.00"/>
        <vehicle id="background.1" x="113.88" y="-1.60" angle="90.00" type="human" speed="13.52" pos="113.88" lane="e0_0" slope="0.00"/>
        <vehicle id="background.2" x="25.47" y="-1.60" angle="90.00" type="human" speed="13.59" pos="25.47" lane="e0_0" slope="0.00"/>
        <vehicle id="ego" x="154.77" y="-1.60" angle="90.00" type="ego_type" speed="13.89" pos="154.77" lane="e0_0" slope="0.00"/>
    </timestep>
    <timestep time="59.00">
        <vehicle id="background.0" x="299.00" y="-1.60" angle="90.00" type="human" speed="0.00" pos="299.00" lane="e0_0" slope="0.00"/>
        <vehicle id="background.1" x="120.82" y="-1.60" angle="90.00" type="human" speed="13.88" pos="120.82" lane="e0_0" slope="0.00"/>
        <vehicle id="background.2" x="32.19" y="-1.60" angle="90.00" type="human" speed="13.44" pos="32.19" lane="e0_0" slope="0.00"/>
        <vehicle id="ego" x="161.72" y="-1.60" angle="90.00" type="ego_type" speed="13.89" pos="161.72" lane="e0_0" slope="0.00"/>
    </timestep>
    <timestep time="59.50">
        <vehicle id="background.0" x="299.00" y="-1.60" angle="90.00" type="human" speed="0.00" pos="299.00" lane="e0_0" slope="0.00"/>
        <vehicle id="background.1" x="127.67" y="-1.60" angle="90.00" type="human" speed="13.70" pos="127.67" lane="e0_0" slope="0.00"/>
        <vehicle id="background.2" x="39.08" y="-1.60" angle="90.00" type="human" speed="13.78" pos="39.08" lane="e0_0" slope="0.00"/>
        <vehicle id="ego" x="168.66" y="-1.60" angle="90.00" type="ego_type" speed="13.89" pos="168.66" lane="e0_0" slope="0.00"/>
    </timestep>
    <timestep time="60.00">
        <vehicle id="background.0" x="299.00" y="-1.60" angle="90.00" type="human" speed="0.00" pos="299.00" lane="e0_0" slope="0.00"/>
        <vehicle id="background.1" x="134.60" y="-1.60" angle="90.00" type="human" speed="13.86" pos="134.60" lane="e0_0" slope="0.00"/>
        <vehicle id="background.2" x="45.88" y="-1.60" angle="90.00" type="human" speed="13.58" pos="45.88" lane="e0_0" slope="0.00"/>
        <vehicle id="ego" x="175.61" y="-1.60" angle="90.00" type="ego_type" speed="13.89" pos="175.61" lane="e0_0" slope="0.00"/>
    </timestep>
    <timestep time="60.50">
        <vehicle id="background.0" x="299.00" y="-1.60" angle="90.00" type="human" speed="0.00" pos="299.00" lane="e0_0" slope="0.00"/>
        <vehicle id="background.1" x="141.53" y="-1.60" angle="90.00" type="human" speed="13.85" pos="141.53" lane="e0_0" slope="0.00"/>
        <vehicle id="background.2" x="52.65" y="-1.60" angle="90.00" type="human" speed="13.56" pos="52.65" lane="e0_0" slope="0.00"/>
        <vehicle id="ego" x="182.55" y="-1.60" angle="90.00" type="ego_type" speed="13.89" pos="182.55" lane="e0_0" slope="0.00"/>
    </timestep>
    <timestep time="61.00">
        <vehicle id="background.0" x="299.00" y="-1.60" angle="90.00" type="human" speed="0.00" pos="299.00" lane="e0_0" slope="0.00"/>
        <vehicle id="background.1" x="148.42" y="-1.60" angle="90.00" type="human" speed="13.79" pos="148.42" lane="e0_0" slope="0.00"/>
        <vehicle id="background.2" x="59.37" y="-1.60" angle="90.00" type="human" speed="13.44" pos="59.37" lane="e0_0" slope="0.00"/>
        <vehicle id="ego" x="189.50" y="-1.60" angle="90.00" type="ego_type" speed="13.89" pos="189.50" lane="e0_0" slope="0.00"/>
    </timestep>
    <timestep time="61.50">
        <vehicle id="background.0" x="299.00" y="-1.60" angle="90.00" type="human" speed="0.00" pos="299.00" lane="e0_0" slope="0.00"/>
        <vehicle id="background.1" x="155.13" y="-1.60" angle="90.00" type="human" speed="13.42" pos="155.13" lane="e0_0" slope="0.00"/>
        <vehicle id="background.2" x="66.25" y="-1.60" angle="90.00" type="human" speed="13.75" pos="66.25" lane="e0_0" slope="0.00"/>
        <vehicle id="ego" x="196.44" y="-1.60" angle="90.00" type="ego_type" speed="13.89" pos="196.44" lane="e0_0" slope="0.00"/>
    </timestep>
    <timestep time="62.00">
        <vehicle id="background.0" x="299.00" y="-1.60" angle="90.00" type="human" speed="0.00" pos="299.00" lane="e0_0" slope="0.00"/>
        <vehicle id="background.1" x="162.02" y="-1.60" angle="90.00" type="human" speed="13.78" pos="162.02" lane="e0_0" slope="0.00"/>
        <vehicle id="background.2" x="72.99" y="-1.60" angle="90.00" type="human" speed="13.48" pos="72.99" lane="e0_0" slope="0.00"/>
        <vehicle id="ego" x="203.39" y="-1.60" angle="90.00" type="ego_type" speed="13.89" pos="203.39" lane="e0_0" slope="0.00"/>
    </timestep>
    <timestep time="62.50">
        <vehicle id="background.0" x="299.00" y="-1.60" angle="90.00" type="human" speed="0.00" pos="299.00" lane="e0_0" slope="0.00"/>
        <vehicle id="background.1" x="168.81" y="-1.60" angle="90.00" type="human" speed="13.57" pos="168.81" lane="e0_0" slope="0.00"/>
        <vehicle id="background.2" x="79.77" y="-1.60" angle="90.00" type="human" speed="13.57" pos="79.77" lane="e0_0" slope="0.00"/>
        <vehicle id="ego" x="210.33" y="-1.60" angle="90.00" type="ego_type" speed="13.89" pos="210.33" lane="e0_0" slope="0.00"/>
    </timestep>
    <timestep time="63.00">
        <vehicle id="background.0" x="299.00" y="-1.60" angle="90.00" type="human" speed="0.00" pos="299.00" lane="e0_0" slope="0.00"/>
        <vehicle id="background.1" x="175.68" y="-1.60" angle="90.00" type="human" speed="13.74" pos="175.68" lane="e0_0" slope="0.00"/>
        <vehicle id="background.2" x="86.57" y="-1.60" angle="90.00" type="human" speed="13.60" pos="86.57" lane="e0_0" slope="0.00"/>
        <vehicle id="ego" x="217.28" y="-1.60" angle="90.00" type="ego_type" speed="13.89" pos="217.28" lane="e0_0" slope="0.00"/>
    </timestep>
    <timestep time="63.50">
        <vehicle id="background.0" x="299.00" y="-1.60" angle="90.00" type="human" speed="0.00" pos="299.00" lane="e0_0" slope="0.00"/>
        <vehicle id="background.1" x="182.54" y="-1.60" angle="90.00" type="human" speed="13.72" pos="182.54" lane="e0_0" slope="0.00"/>
        <vehicle id="background.2" x="93.33" y="-1.60" angle="90.00" type="human" speed="13.51" pos="93.33" lane="e0_0" slope="0.00"/>
        <vehicle id="ego" x="224.22" y="-1.60" angle="90.00" type="ego_type" speed="13.89" pos="224.22" lane="e0_0" slope="0.00"/>
    </timestep>
    <timestep time="64.00">
        <vehicle id="background.0" x="299.00" y="-1.60" angle="90.00" type="human" speed="0.00" pos="299.00" lane="e0_0" slope="0.00"/>
        <vehicle id="background.1" x="189.47" y="-1.60" angle="90.00" type="human" speed="13.86" pos="189.47" lane="e0_0" slope="0.00"/>
        <vehicle id="background.2" x="100.03" y="-1.60" angle="90.00" type="human" speed="13.40" pos="100.03" lane="e0_0" slope="0.00"/>
        <vehicle id="ego" x="231.17" y="-1.60" angle="90.00" type="ego_type" speed="13.89" pos="231.17" lane="e0_0" slope="0.00"/>
    </timestep>
    <timestep time="64.50">
        <vehicle id="background.0" x="299.00" y="-1.60" angle="90.00" type="human" speed="0.00" pos="299.00" lane="e0_0" slope="0.00"/>
        <vehicle id="background.1" x="196.18" y="-1.60" angle="90.00" type="human" speed="13.42" pos="196.18" lane="e0_0" slope="0.00"/>
        <vehicle id="background.2" x="106.88" y="-1.60" angle="90.00" type="human" speed="13.70" pos="106.88" lane="e0_0" slope="0.00"/>
        <vehicle id="ego" x="238.11" y="-1.60" angle="90.00" type="ego_type" speed="13.89" pos="238.11" lane="e0_0" slope="0.00"/>
    </timestep>
    <timestep time="65.00">
        <vehicle id="background.0" x="299.00" y="-1.60" angle="90.00" type="human" speed="0.00" pos="299.00" lane="e0_0" slope="0.00"/>
        <vehicle id="background.1" x="202.99" y="-1.60" angle="90.00" type="human" speed="13.62" pos="202.99" lane="e0_0" slope="0.00"/>
        <vehicle id="background.2" x="113.74" y="-1.60" angle="90.00" type="human" speed="13.72" pos="113.74" lane="e0_0" slope="0.00"/>
        <vehicle id="ego" x="245.06" y="-1.60" angle="90.00" type="ego_type" speed="13.89" pos="245.06" lane="e0_0" slope="0.00"/>
    </timestep>
    <timestep time="65.50">
        <vehicle id="background.0" x="299.00" y="-1.60" angle="90.00" type="human" speed="0.00" pos="299.00" lane="e0_0" slope="0.00"/>
        <vehicle id="background.1" x="209.91" y="-1.60" angle="90.00" type="human" speed="13.84" pos="209.91" lane="e0_0" slope="0.00"/>
        <vehicle id="background.2" x="120.66" y="-1.60" angle="90.00" type="human" speed="13.84" pos="120.66" lane="e0_0" slope="0.00"/>
        <vehicle id="ego" x="252.00" y="-1.60" angle="90.00" type="ego_type" speed="13.89" pos="252.00" lane="e0_0" slope="0.00"/>
    </timestep>
    <timestep time="66.00">