<?xml version="1.0" encoding="UTF-8"?>

<!-- generated on 2026-05-14 17:05:00 by Eclipse SUMO sumo Version 1.24.0
<sumoConfiguration xmlns:xsi="http://www.w3.org/2001/XMLSchema-instance" xsi:noNamespaceSchemaLocation="http://sumo.dlr.de/xsd/sumoConfiguration.xsd">

    <input>
        <net-file value="scenarios/simple_arterial/simple_arterial.net.xml"/>
        <route-files value="scenarios/simple_arterial/simple_arterial.rou.xml"/>
        <additional-files value="scenarios/simple_arterial/simple_arterial.tls.xml"/>
    </input>

    <output>
        <fcd-output value="runs/fcd_expert_default/episode_00063_seed_105.fcd.xml"/>
    </output>

    <time>
        <begin value="0"/>
        <end value="900"/>
        <step-length value="0.5"/>
    </time>

    <report>
        <no-warnings value="true"/>
    </report>

    <traci_server>
        <remote-port value="24542"/>
    </traci_server>

    <random_number>
        <seed value="105"/>
    </random_number>

</sumoConfiguration>
-->

<fcd-export xmlns:xsi="http://www.w3.org/2001/XMLSchema-instance" xsi:noNamespaceSchemaLocation="http://sumo.dlr.de/xsd/fcd_file.xsd">
    <timestep time="0.00"/>
    <timestep time="0.50"/>
    <timestep time="1.00"/>
    <timestep time="1.50"/>
    <timestep time="2.00"/>
    <timestep time="2.50"/>
    <timestep time="3.00"/>
    <timestep time="3.50"/>
    <timestep time="4.00"/>
    <timestep time="4.50"/>
    <timestep time="5.00"/>
    <timestep time="5.50"/>
    <timestep time="6.00"/>
    <timestep time="6.50"/>
    <timestep time="7.00">
        <vehicle id="background.0" x="5.10" y="-1.60" angle="90.00" type="human" speed="13.06" pos="5.10" lane="e0_0" slope="0.00"/>
    </timestep>
    <timestep time="7.50">
        <vehicle id="background.0" x="11.63" y="-1.60" angle="90.00" type="human" speed="13.06" pos="11.63" lane="e0_0" slope="0.00"/>
    </timestep>
    <timestep time="8.00">
        <vehicle id="background.0" x="17.98" y="-1.60" angle="90.00" type="human" speed="12.71" pos="17.98" lane="e0_0" slope="0.00"/>
    </timestep>
    <timestep time="8.50">
        <vehicle id="background.0" x="24.27" y="-1.60" angle="90.00" type="human" speed="12.58" pos="24.27" lane="e0_0" slope="0.00"/>
    </timestep>
    <timestep time="9.00">
        <vehicle id="background.0" x="30.69" y="-1.60" angle="90.00" type="human" speed="12.82" pos="30.69" lane="e0_0" slope="0.00"/>
    </timestep>
    <timestep time="9.50">
        <vehicle id="background.0" x="37.10" y="-1.60" angle="90.00" type="human" speed="12.83" pos="37.10" lane="e0_0" slope="0.00"/>
    </timestep>
    <timestep time="10.00">
        <vehicle id="background.0" x="43.51" y="-1.60" angle="90.00" type="human" speed="12.81" pos="43.51" lane="e0_0" slope="0.00"/>
    </timestep>
    <timestep time="10.50">
        <vehicle id="background.0" x="49.88" y="-1.60" angle="90.00" type="human" speed="12.75" pos="49.88" lane="e0_0" slope="0.00"/>
        <vehicle id="background.1" x="5.10" y="-1.60" angle="90.00" type="human" speed="13.29" pos="5.10" lane="e0_0" slope="0.00"/>
    </timestep>
    <timestep time="11.00">
        <vehicle id="background.0" x="56.38" y="-1.60" angle="90.00" type="human" speed="13.00" pos="56.38" lane="e0_0" slope="0.00"/>
        <vehicle id="background.1" x="11.53" y="-1.60" angle="90.00" type="human" speed="12.86" pos="11.53" lane="e0_0" slope="0.00"/>
    </timestep>
    <timestep time="11.50">
        <vehicle id="background.0" x="62.71" y="-1.60" angle="90.00" type="human" speed="12.65" pos="62.71" lane="e0_0" slope="0.00"/>
        <vehicle id="background.1" x="17.99" y="-1.60" angle="90.00" type="human" speed="12.92" pos="17.99" lane="e0_0" slope="0.00"/>
    </timestep>
    <timestep time="12.00">
        <vehicle id="background.0" x="68.99" y="-1.60" angle="90.00" type="human" speed="12.56" pos="68.99" lane="e0_0" slope="0.00"/>
        <vehicle id="background.1" x="24.39" y="-1.60" angle="90.00" type="human" speed="12.80" pos="24.39" lane="e0_0" slope="0.00"/>
    </timestep>
    <timestep time="12.50">
        <vehicle id="background.0" x="75.51" y="-1.60" angle="90.00" type="human" speed="13.05" pos="75.51" lane="e0_0" slope="0.00"/>
        <vehicle id="background.1" x="30.82" y="-1.60" angle="90.00" type="human" speed="12.86" pos="30.82" lane="e0_0" slope="0.00"/>
    </timestep>
    <timestep time="13.00">
        <vehicle id="background.0" x="81.88" y="-1.60" angle="90.00" type="human" speed="12.73" pos="81.88" lane="e0_0" slope="0.00"/>
        <vehicle id="background.1" x="37.25" y="-1.60" angle="90.00" type="human" speed="12.86" pos="37.25" lane="e0_0" slope="0.00"/>
    </timestep>
    <timestep time="13.50">
        <vehicle id="background.0" x="88.36" y="-1.60" angle="90.00" type="human" speed="12.97" pos="88.36" lane="e0_0" slope="0.00"/>
        <vehicle id="background.1" x="43.68" y="-1.60" angle="90.00" type="human" speed="12.86" pos="43.68" lane="e0_0" slope="0.00"/>
    </timestep>
    <timestep time="14.00">
        <vehicle id="background.0" x="94.73" y="-1.60" angle="90.00" type="human" speed="12.72" pos="94.73" lane="e0_0" slope="0.00"/>
        <vehicle id="background.1" x="50.24" y="-1.60" angle="90.00" type="human" speed="13.11" pos="50.24" lane="e0_0" slope="0.00"/>
    </timestep>
    <timestep time="14.50">
        <vehicle id="background.0" x="101.07" y="-1.60" angle="90.00" type="human" speed="12.69" pos="101.07" lane="e0_0" slope="0.00"/>
        <vehicle id="background.1" x="56.83" y="-1.60" angle="90.00" type="human" speed="13.18" pos="56.83" lane="e0_0" slope="0.00"/>
    </timestep>
    <timestep time="15.00">
        <vehicle id="background.0" x="107.50" y="-1.60" angle="90.00" type="human" speed="12.87" pos="107.50" lane="e0_0" slope="0.00"/>
        <vehicle id="background.1" x="63.28" y="-1.60" angle="90.00" type="human" speed="12.90" pos="63.28" lane="e0_0" slope="0.00"/>
    </timestep>
    <timestep time="15.50">
        <vehicle id="background.0" x="113.99" y="-1.60" angle="90.00" type="human" speed="12.97" pos="113.99" lane="e0_0" slope="0.00"/>
        <vehicle id="background.1" x="69.70" y="-1.60" angle="90.00" type="human" speed="12.84" pos="69.70" lane="e0_0" slope="0.00"/>
    </timestep>
    <timestep time="16.00">
        <vehicle id="background.0" x="120.31" y="-1.60" angle="90.00" type="human" speed="12.64" pos="120.31" lane="e0_0" slope="0.00"/>
        <vehicle id="background.1" x="76.33" y="-1.60" angle="90.00" type="human" speed="13.26" pos="76.33" lane="e0_0" slope="0.00"/>
    </timestep>
    <timestep time="16.50">
        <vehicle id="background.0" x="126.67" y="-1.60" angle="90.00" type="human" speed="12.72" pos="126.67" lane="e0_0" slope="0.00"/>
        <vehicle id="background.1" x="82.94" y="-1.60" angle="90.00" type="human" speed="13.22" pos="82.94" lane="e0_0" slope="0.00"/>
    </timestep>
    <timestep time="17.00">
        <vehicle id="background.0" x="133.16" y="-1.60" angle="90.00" type="human" speed="12.98" pos="133.16" lane="e0_0" slope="0.00"/>
        <vehicle id="background.1" x="89.54" y="-1.60" angle="90.00" type="human" speed="13.20" pos="89.54" lane="e0_0" slope="0.00"/>
    </timestep>
    <timestep time="17.50">
        <vehicle id="background.0" x="139.68" y="-1.60" angle="90.00" type="human" speed="13.03" pos="139.68" lane="e0_0" slope="0.00"/>
        <vehicle id="background.1" x="96.17" y="-1.60" angle="90.00" type="human" speed="13.27" pos="96.17" lane="e0_0" slope="0.00"/>
    </timestep>
    <timestep time="18.00">
        <vehicle id="background.0" x="145.98" y="-1.60" angle="90.00" type="human" speed="12.60" pos="145.98" lane="e0_0" slope="0.00"/>
        <vehicle id="background.1" x="102.69" y="-1.60" angle="90.00" type="human" speed="13.03" pos="102.69" lane="e0_0" slope="0.00"/>
    </timestep>
    <timestep time="18.50">
        <vehicle id="background.0" x="152.42" y="-1.60" angle="90.00" type="human" speed="12.89" pos="152.42" lane="e0_0" slope="0.00"/>
        <vehicle id="background.1" x="109.14" y="-1.60" angle="90.00" type="human" speed="12.91" pos="109.14" lane="e0_0" slope="0.00"/>
    </timestep>
    <timestep time="19.00">
        <vehicle id="background.0" x="158.71" y="-1.60" angle="90.00" type="human" speed="12.57" pos="158.71" lane="e0_0" slope="0.00"/>
        <vehicle id="background.1" x="115.67" y="-1.60" angle="90.00" type="human" speed="13.05" pos="115.67" lane="e0_0" slope="0.00"/>
    </timestep>
    <timestep time="19.50">
        <vehicle id="background.0" x="165.09" y="-1.60" angle="90.00" type="human" speed="12.76" pos="165.09" lane="e0_0" slope="0.00"/>
        <vehicle id="background.1" x="122.26" y="-1.60" angle="90.00" type="human" speed="13.18" pos="122.26" lane="e0_0" slope="0.00"/>
    </timestep>
    <timestep time="20.00">
        <vehicle id="background.0" x="171.48" y="-1.60" angle="90.00" type="human" speed="12.78" pos="171.48" lane="e0_0" slope="0.00"/>
        <vehicle id="background.1" x="128.80" y="-1.60" angle="90.00" type="human" speed="13.08" pos="128.80" lane="e0_0" slope="0.00"/>
    </timestep>
    <timestep time="20.50">
        <vehicle id="background.0" x="177.88" y="-1.60" angle="90.00" type="human" speed="12.81" pos="177.88" lane="e0_0" slope="0.00"/>
        <vehicle id="background.1" x="135.30" y="-1.60" angle="90.00" type="human" speed="13.01" pos="135.30" lane="e0_0" slope="0.00"/>
    </timestep>
    <timestep time="21.00">
        <vehicle id="background.0" x="184.19" y="-1.60" angle="90.00" type="human" speed="12.61" pos="184.19" lane="e0_0" slope="0.00"/>
        <vehicle id="background.1" x="141.85" y="-1.60" angle="90.00" type="human" speed="13.09" pos="141.85" lane="e0_0" slope="0.00"/>
    </timestep>
    <timestep time="21.50">
        <vehicle id="background.0" x="190.65" y="-1.60" angle="90.00" type="human" speed="12.92" pos="190.65" lane="e0_0" slope="0.00"/>
        <vehicle id="background.1" x="148.36" y="-1.60" angle="90.00" type="human" speed="13.03" pos="148.36" lane="e0_0" slope="0.00"/>
    </timestep>
    <timestep time="22.00">
        <vehicle id="background.0" x="197.08" y="-1.60" angle="90.00" type="human" speed="12.87" pos="197.08" lane="e0_0" slope="0.00"/>
        <vehicle id="background.1" x="154.83" y="-1.60" angle="90.00" type="human" speed="12.94" pos="154.83" lane="e0_0" slope="0.00"/>
    </timestep>
    <timestep time="22.50">
        <vehicle id="background.0" x="203.36" y="-1.60" angle="90.00" type="human" speed="12.56" pos="203.36" lane="e0_0" slope="0.00"/>
        <vehicle id="background.1" x="161.23" y="-1.60" angle="90.00" type="human" speed="12.79" pos="161.23" lane="e0_0" slope="0.00"/>
    </timestep>
    <timestep time="23.00">
        <vehicle id="background.0" x="209.83" y="-1.60" angle="90.00" type="human" speed="12.92" pos="209.83" lane="e0_0" slope="0.00"/>
        <vehicle id="background.1" x="167.72" y="-1.60" angle="90.00" type="human" speed="12.98" pos="167.72" lane="e0_0" slope="0.00"/>
    </timestep>
    <timestep time="23.50">
        <vehicle id="background.0" x="216.32" y="-1.60" angle="90.00" type="human" speed="12.98" pos="216.32" lane="e0_0" slope="0.00"/>
        <vehicle id="background.1" x="174.16" y="-1.60" angle="90.00" type="human" speed="12.88" pos="174.16" lane="e0_0" slope="0.00"/>
    </timestep>
    <timestep time="24.00">
        <vehicle id="background.0" x="222.80" y="-1.60" angle="90.00" type="human" speed="12.98" pos="222.80" lane="e0_0" slope="0.00"/>
        <vehicle id="background.1" x="180.75" y="-1.60" angle="90.00" type="human" speed="13.18" pos="180.75" lane="e0_0" slope="0.00"/>
    </timestep>
    <timestep time="24.50">
        <vehicle id="background.0" x="229.25" y="-1.60" angle="90.00" type="human" speed="12.88" pos="229.25" lane="e0_0" slope="0.00"/>
        <vehicle id="background.1" x="187.33" y="-1.60" angle="90.00" type="human" speed="13.15" pos="187.33" lane="e0_0" slope="0.00"/>
    </timestep>
    <timestep time="25.00">
        <vehicle id="background.0" x="235.62" y="-1.60" angle="90.00" type="human" speed="12.76" pos="235.62" lane="e0_0" slope="0.00"/>
        <vehicle id="background.1" x="193.86" y="-1.60" angle="90.00" type="human" speed="13.07" pos="193.86" lane="e0_0" slope="0.00"/>
    </timestep>
    <timestep time="25.50">
        <vehicle id="background.0" x="241.99" y="-1.60" angle="90.00" type="human" speed="12.73" pos="241.99" lane="e0_0" slope="0.00"/>
        <vehicle id="background.1" x="200.41" y="-1.60" angle="90.00" type="human" speed="13.10" pos="200.41" lane="e0_0" slope="0.00"/>
    </timestep>
    <timestep time="26.00">
        <vehicle id="background.0" x="248.44" y="-1.60" angle="90.00" type="human" speed="12.90" pos="248.44" lane="e0_0" slope="0.00"/>
        <vehicle id="background.1" x="207.03" y="-1.60" angle="90.00" type="human" speed="13.24" pos="207.03" lane="e0_0" slope="0.00"/>
    </timestep>
    <timestep time="26.50">
        <vehicle id="background.0" x="254.78" y="-1.60" angle="90.00" type="human" speed="12.67" pos="254.78" lane="e0_0" slope="0.00"/>
        <vehicle id="background.1" x="213.61" y="-1.60" angle="90.00" type="human" speed="13.16" pos="213.61" lane="e0_0" slope="0.00"/>
    </timestep>
    <timestep time="27.00">
        <vehicle id="background.0" x="261.24" y="-1.60" angle="90.00" type="human" speed="12.93" pos="261.24" lane="e0_0" slope="0.00"/>
        <vehicle id="background.1" x="220.20" y="-1.60" angle="90.00" type="human" speed="13.18" pos="220.20" lane="e0_0" slope="0.00"/>
    </timestep>
    <timestep time="27.50">
        <vehicle id="background.0" x="267.66" y="-1.60" angle="90.00" type="human" speed="12.84" pos="267.66" lane="e0_0" slope="0.00"/>
        <vehicle id="background.1" x="226.64" y="-1.60" angle="90.00" type="human" speed="12.88" pos="226.64" lane="e0_0" slope="0.00"/>
    </timestep>
    <timestep time="28.00">
        <vehicle id="background.0" x="274.01" y="-1.60" angle="90.00" type="human" speed="12.69" pos="274.01" lane="e0_0" slope="0.00"/>
        <vehicle id="background.1" x="233.05" y="-1.60" angle="90.00" type="human" speed="12.82" pos="233.05" lane="e0_0" slope="0.00"/>
    </timestep>
    <timestep time="28.50">
        <vehicle id="background.0" x="280.45" y="-1.60" angle="90.00" type="human" speed="12.88" pos="280.45" lane="e0_0" slope="0.00"/>
        <vehicle id="background.1" x="239.58" y="-1.60" angle="90.00" type="human" speed="13.05" pos="239.58" lane="e0_0" slope="0.00"/>
    </timestep>
    <timestep time="29.00">
        <vehicle id="background.0" x="286.91" y="-1.60" angle="90.00" type="human" speed="12.93" pos="286.91" lane="e0_0" slope="0.00"/>
        <vehicle id="background.1" x="246.22" y="-1.60" angle="90.00" type="human" speed="13.27" pos="246.22" lane="e0_0" slope="0.00"/>
    </timestep>
    <timestep time="29.50">
        <vehicle id="background.0" x="293.41" y="-1.60" angle="90.00" type="human" speed="12.99" pos="293.41" lane="e0_0" slope="0.00"/>
        <vehicle id="background.1" x="252.70" y="-1.60" angle="90.00" type="human" speed="12.97" pos="252.70" lane="e0_0" slope="0.00"/>
    </timestep>
    <timestep time="30.00">
        <vehicle id="background.0" x="299.75" y="-1.60" angle="90.00" type="human" speed="12.68" pos="299.75" lane="e0_0" slope="0.00"/>
        <vehicle id="background.1" x="259.14" y="-1.60" angle="90.00" type="human" speed="12.88" pos="259.14" lane="e0_0" slope="0.00"/>
    </timestep>
    <timestep time="30.50">
        <vehicle id="background.0" x="305.94" y="-1.60" angle="90.00" type="human" speed="12.59" pos="5.94" lane="e1_0" slope="0.00"/>
        <vehicle id="background.1" x="265.72" y="-1.60" angle="90.00" type="human" speed="13.15" pos="265.72" lane="e0_0" slope="0.00"/>
    </timestep>
    <timestep time="31.00">
        <vehicle id="background.0" x="312.43" y="-1.60" angle="90.00" type="human" speed="12.98" pos="12.43" lane="e1_0" slope="0.00"/>
        <vehicle id="background.1" x="272.33" y="-1.60" angle="90.00" type="human" speed="13.23" pos="272.33" lane="e0_0" slope="0.00"/>
    </timestep>
    <timestep time="31.50">
        <vehicle id="background.0" x="318.71" y="-1.60" angle="90.00" type="human" speed="12.56" pos="18.71" lane="e1_0" slope="0.00"/>
        <vehicle id="background.1" x="278.85" y="-1.60" angle="90.00" type="human" speed="13.03" pos="278.85" lane="e0_0" slope="0.00"/>
    </timestep>
    <timestep time="32.00">
        <vehicle id="background.0" x="325.05" y="-1.60" angle="90.00" type="human" speed="12.68" pos="25.05" lane="e1_0" slope="0.00"/>
        <vehicle id="background.1" x="285.45" y="-1.60" angle="90.00" type="human" speed="13.21" pos="285.45" lane="e0_0" slope="0.00"/>
    </timestep>
    <timestep time="32.50">
        <vehicle id="background.0" x="331.45" y="-1.60" angle="90.00" type="human" speed="12.79" pos="31.45" lane="e1_0" slope="0.00"/>
        <vehicle id="background.1" x="292.05" y="-1.60" angle="90.00" type="human" speed="13.20" pos="292.05" lane="e0_0" slope="0.00"/>
    </timestep>
    <timestep time="33.00">
        <vehicle id="background.0" x="337.84" y="-1.60" angle="90.00" type="human" speed="12.78" pos="37.84" lane="e1_0" slope="0.00"/>
        <vehicle id="background.1" x="298.48" y="-1.60" angle="90.00" type="human" speed="12.86" pos="298.48" lane="e0_0" slope="0.00"/>
    </timestep>
    <timestep time="33.50">
        <vehicle id="background.0" x="344.35" y="-1.60" angle="90.00" type="human" speed="13.02" pos="44.35" lane="e1_0" slope="0.00"/>
        <vehicle id="background.1" x="304.93" y="-1.60" angle="90.00" type="human" speed="13.11" pos="4.93" lane="e1_0" slope="0.00"/>
    </timestep>
    <timestep time="34.00">
        <vehicle id="background.1" x="311.35" y="-1.60" angle="90.00" type="human" speed="12.84" pos="11.35" lane="e1_0" slope="0.00"/>
    </timestep>
    <timestep time="34.50">
        <vehicle id="background.1" x="317.91" y="-1.60" angle="90.00" type="human" speed="13.12" pos="17.91" lane="e1_0" slope="0.00"/>
    </timestep>
    <timestep time="35.00">
        <vehicle id="background.1" x="324.46" y="-1.60" angle="90.00" type="human" speed="13.10" pos="24.46" lane="e1_0" slope="0.00"/>
    </timestep>
    <timestep time="35.50">
        <vehicle id="background.1" x="331.07" y="-1.60" angle="90.00" type="human" speed="13.21" pos="31.07" lane="e1_0" slope="0.00"/>
    </timestep>
    <timestep time="36.00">
        <vehicle id="background.1" x="337.71" y="-1.60" angle="90.00" type="human" speed="13.28" pos="37.71" lane="e1_0" slope="0.00"/>
    </timestep>
    <timestep time="36.50">
        <vehicle id="background.1" x="344.27" y="-1.60" angle="90.00" type="human" speed="13.12" pos="44.27" lane="e1_0" slope="0.00"/>
    </timestep>
    <timestep time="37.00"/>
    <timestep time="37.50"/>
    <timestep time="38.00"/>
    <timestep time="38.50"/>
    <timestep time="39.00"/>
    <timestep time="39.50"/>
    <timestep time="40.00"/>
    <timestep time="40.50"/>
    <timestep time="41.00"/>
    <timestep time="41.50"/>
    <timestep time="42.00"/>
    <timestep time="42.50"/>
    <timestep time="43.00"/>
    <timestep time="43.50"/>
    <timestep time="44.00"/>
    <timestep time="44.50"/>
    <timestep time="45.00"/>
    <timestep time="45.50"/>
    <timestep time="46.00"/>
    <timestep time="46.50"/>
    <timestep time="47.00"/>
    <timestep time="47.50"/>
    <timestep time="48.00"/>
    <timestep time="48.50"/>
    <timestep time="49.00"/>
    <timestep time="49.50"/>
    <timestep time="50.00"/>
    <timestep time="50.50"/>
    <timestep time="51.00"/>
    <timestep time="51.50"/>
    <timestep time="52.00"/>
    <timestep time="52.50"/>
    <timestep time="53.00"/>
    <timestep time="53.50"/>
    <timestep time="54.00"/>
    <timestep time="54.50"/>
    <timestep time="55.00"/>
    <timestep time="55.50"/>
    <timestep time="56.00"/>
    <timestep time="56.50"/>
    <timestep time="57.00"/>
    <timestep time="57.50">
        <vehicle id="ego" x="5.10" y="-1.60" angle="90.00" type="ego_type" speed="0.00" pos="5.10" lane="e0_0" slope="0.00"/>
    </timestep>
    <timestep time="58.00">
        <vehicle id="ego" x="5.60" y="-1.60" angle="90.00" type="ego_type" speed="1.00" pos="5.60" lane="e0_0" slope="0.00"/>
    </timestep>
    <timestep time="58.50">
        <vehicle id="ego" x="6.60" y="-1.60" angle="90.00" type="ego_type" speed="2.00" pos="6.60" lane="e0_0" slope="0.00"/>
    </timestep>
    <timestep time="59.00">
        <vehicle id="ego" x="8.10" y="-1.60" angle="90.00" type="ego_type" speed="3.00" pos="8.10" lane="e0_0" slope="0.00"/>
    </timestep>
    <timestep time="59.50">
        <vehicle id="ego" x="10.10" y="-1.60" angle="90.00" type="ego_type" speed="4.00" pos="10.10" lane="e0_0" slope="0.00"/>
    </timestep>
    <timestep time="60.00">
        <vehicle id="ego" x="12.60" y="-1.60" angle="90.00" type="ego_type" speed="5.00" pos="12.60" lane="e0_0" slope="0.00"/>
    </timestep>
    <timestep time="60.50">
        <vehicle id="ego" x="15.60" y="-1.60" angle="90.00" type="ego_type" speed="6.00" pos="15.60" lane="e0_0" slope="0.00"/>
    </timestep>
    <timestep time="61.00">
        <vehicle id="ego" x="19.10" y="-1.60" angle="90.00" type="ego_type" speed="7.00" pos="19.10" lane="e0_0" slope="0.00"/>
    </timestep>
    <timestep time="61.50">
        <vehicle id="ego" x="23.10" y="-1.60" angle="90.00" type="ego_type" speed="8.00" pos="23.10" lane="e0_0" slope="0.00"/>
    </timestep>
    <timestep time="62.00">
        <vehicle id="ego" x="27.60" y="-1.60" angle="90.00" type="ego_type" speed="9.00" pos="27.60" lane="e0_0" slope="0.00"/>
    </timestep>
    <timestep time="62.50">
        <vehicle id="ego" x="32.60" y="-1.60" angle="90.00" type="ego_type" speed="10.00" pos="32.60" lane="e0_0" slope="0.00"/>
    </timestep>
    <timestep time="63.00">
        <vehicle id="ego" x="38.10" y="-1.60" angle="90.00" type="ego_type" speed="11.00" pos="38.10" lane="e0_0" slope="0.00"/>
    </timestep>
    <timestep time="63.50">
        <vehicle id="ego" x="44.10" y="-1.60" angle="90.00" type="ego_type" speed="12.00" pos="44.10" lane="e0_0" slope="0.00"/>
    </timestep>
    <timestep time="64.00">
        <vehicle id="ego" x="50.60" y="-1.60" angle="90.00" type="ego_type" speed="13.00" pos="50.60" lane="e0_0" slope="0.00"/>
    </timestep>
    <timestep time="64.50">
        <vehicle id="ego" x="57.13" y="-1.60" angle="90.00" type="ego_type" speed="13.06" pos="57.13" lane="e0_0" slope="0.00"/>
    </timestep>
    <timestep time="65.00">
        <vehicle id="ego" x="63.66" y="-1.60" angle="90.00" type="ego_type" speed="13.06" pos="63.66" lane="e0_0" slope="0.00"/>
    </timestep>
    <timestep time="65.50">
        <vehicle id="ego" x="70.19" y="-1.60" angle="90.00" type="ego_type" speed="13.06" pos="70.19" lane="e0_0" slope="0.00"/>
    </timestep>
    <timestep time="66.00">
        <vehicle id="ego" x="76.72" y="-1.60" angle="90.00" type="ego_type" speed="13.06" pos="76.72" lane="e0_0" slope="0.00"/>
    </timestep>
    <timestep time="66.50">
        <vehicle id="ego" x="83.25" y="-1.60" angle="90.00" type="ego_type" speed="13.06" pos="83.25" lane="e0_0" slope="0.00"/>
    </timestep>
    <timestep time="67.00">
        <vehicle id="ego" x="89.78" y="-1.60" angle="90.00" type="ego_type" speed="13.06" pos="89.78" lane="e0_0" slope="0.00"/>
    </timestep>
    <timestep time="67.50">
        <vehicle id="ego" x="96.31" y="-1.60" angle="90.00" type="ego_type" speed="13.06" pos="96.31" lane="e0_0" slope="0.00"/>
    </timestep>
    <timestep time="68.00">
        <vehicle id="background.2" x="5.10" y="-1.60" angle="90.00" type="human" speed="13.89" pos="5.10" lane="e0_0" slope="0.00"/>
        <vehicle id="ego" x="102.84" y="-1.60" angle="90.00" type="ego_type" speed="13.06" pos="102.84" lane="e0_0" slope="0.00"/>
    </timestep>
    <timestep time="68.50">
        <vehicle id="background.2" x="11.85" y="-1.60" angle="90.00" type="human" speed="13.49" pos="11.85" lane="e0_0" slope="0.00"/>
        <vehicle id="ego" x="109.37" y="-1.60" angle="90.00" type="ego_type" speed="13.06" pos="109.37" lane="e0_0" slope="0.00"/>
    </timestep>
    <timestep time="69.00">
        <vehicle id="background.2" x="18.69" y="-1.60" angle="90.00" type="human" speed="13.68" pos="18.69" lane="e0_0" slope="0.00"/>
        <vehicle id="ego" x="115.90" y="-1.60" angle="90.00" type="ego_type" speed="13.06" pos="115.90" lane="e0_0" slope="0.00"/>
    </timestep>
    <timestep time="69.50">
        <vehicle id="background.2" x="25.58" y="-1.60" angle="90.00" type="human" speed="13.79" pos="25.58" lane="e0_0" slope="0.00"/>
        <vehicle id="background.3" x="5.10" y="-1.60" angle="90.00" type="human" speed="13.59" pos="5.10" lane="e0_0" slope="0.00"/>
        <vehicle id="ego" x="122.43" y="-1.60" angle="90.00" type="ego_type" speed="13.06" pos="122.43" lane="e0_0" slope="0.00"/>
    </timestep>
    <timestep time="70.00">
        <vehicle id="background.2" x="32.49" y="-1.60" angle="90.00" type="human" speed="13.81" pos="32.49" lane="e0_0" slope="0.00"/>
        <vehicle id="background.3" x="11.75" y="-1.60" angle="90.00" type="human" speed="13.30" pos="11.75" lane="e0_0" slope="0.00"/>
        <vehicle id="ego" x="128.96" y="-1.60" angle="90.00" type="ego_type" speed="13.06" pos="128.96" lane="e0_0" slope="0.00"/>
    </timestep>
    <timestep time="70.50">
        <vehicle id="background.2" x="39.38" y="-1.60" angle="90.00" type="human" speed="13.79" pos="39.38" lane="e0_0" slope="0.00"/>
        <vehicle id="background.3" x="18.54" y="-1.60" angle="90.00" type="human" speed="13.57" pos="18.54" lane="e0_0" slope="0.00"/>
        <vehicle id="ego" x="135.49" y="-1.60" angle="90.00" type="ego_type" speed="13.06" pos="135.49" lane="e0_0" slope="0.00"/>
    </timestep>
    <timestep time="71.00">
        <vehicle id="background.2" x="46.20" y="-1.60" angle="90.00" type="human" speed="13.64" pos="46.20" lane="e0_0" slope="0.00"/>
        <vehicle id="background.3" x="25.32" y="-1.60" angle="90.00" type="human" speed="13.57" pos="25.32" lane="e0_0" slope="0.00"/>
        <vehicle id="ego" x="142.02" y="-1.60" angle="90.00" type="ego_type" speed="13.06" pos="142.02" lane="e0_0" slope="0.00"/>
    </timestep>
    <timestep time="71.50">
        <vehicle id="background.2" x="53.04" y="-1.60" angle="90.00" type="human" speed="13.67" pos="53.04" lane="e0_0" slope="0.00"/>
        <vehicle id="background.3" x="31.93" y="-1.60" angle="90.00" type="human" speed="13.21" pos="31.93" lane="e0_0" slope="0.00"/>
        <vehicle id="ego" x="148.55" y="-1.60" angle="90.00" type="ego_type" speed="13.06" pos="148.55" lane="e0_0" slope="0.00"/>
    </timestep>
    <timestep time="72.00">
        <vehicle id="background.2" x="59.87" y="-1.60" angle="90.00" type="human" speed="13.67" pos="59.87" lane="e0_0" slope="0.00"/>
        <vehicle id="background.3" x="38.65" y="-1.60" angle="90.00" type="human" speed="13.45" pos="38.65" lane="e0_0" slope="0.00"/>
        <vehicle id="ego" x="155.08" y="-1.60" angle="90.00" type="ego_type" speed="13.06" pos="155.08" lane="e0_0" slope="0.00"/>
    </timestep>
    <timestep time="72.50">
        <vehicle id="background.2" x="66.68" y="-1.60" angle="90.00" type="human" speed="13.61" pos="66.68" lane="e0_0" slope="0.00"/>
        <vehicle id="background.3" x="45.31" y="-1.60" angle="90.00" type="human" speed="13.31" pos="45.31" lane="e0_0" slope="0.00"/>
        <vehicle id="ego" x="161.60" y="-1.60" angle="90.00" type="ego_type" speed="13.06" pos="161.60" lane="e0_0" slope="0.00"/>
    </timestep>
    <timestep time="73.00">
        <vehicle id="background.2" x="73.40" y="-1.60" angle="90.00" type="human" speed="13.44" pos="73.40" lane="e0_0" slope="0.00"/>
        <vehicle id="background.3" x="52.10" y="-1.60" angle="90.00" type="human" speed="13.59" pos="52.10" lane="e0_0" slope="0.00"/>
        <vehicle id="ego" x="168.13" y="-1.60" angle="90.00" type="ego_type" speed="13.06" pos="168.13" lane="e0_0" slope="0.00"/>
    </timestep>
    <timestep time="73.50">
        <vehicle id="background.2" x="80.25" y="-1.60" angle="90.00" type="human" speed="13.70" pos="80.25" lane="e0_0" slope="0.00"/>
        <vehicle id="background.3" x="58.64" y="-1.60" angle="90.00" type="human" speed="13.08" pos="58.64" lane="e0_0" slope="0.00"/>
        <vehicle id="ego" x="174.66" y="-1.60" angle="90.00" type="ego_type" speed="13.06" pos="174.66" lane="e0_0" slope="0.00"/>
    </timestep>
    <timestep time="74.00">
        <vehicle id="background.2" x="87.08" y="-1.60" angle="90.00" type="human" speed="13.66" pos="87.08" lane="e0_0" slope="0.00"/>
        <vehicle id="background.3" x="65.35" y="-1.60" angle="90.00" type="human" speed="13.42" pos="65.35" lane="e0_0" slope="0.00"/>
        <vehicle id="ego" x="181.19" y="-1.60" angle="90.00" type="ego_type" speed="13.06" pos="181.19" lane="e0_0" slope="0.00"/>
    </timestep>
    <timestep time="74.50">
        <vehicle id="background.2" x="93.95" y="-1.60" angle="90.00" type="human" speed="13.74" pos="93.95" lane="e0_0" slope="0.00"/>
        <vehicle id="background.3" x="72.25" y="-1.60" angle="90.00" type="human" speed="13.79" pos="72.25" lane="e0_0" slope="0.00"/>
        <vehicle id="ego" x="187.72" y="-1.60" angle="90.00" type="ego_type" speed="13.06" pos="187.72" lane="e0_0" slope="0.00"/>
    </timestep>
    <timestep time="75.00">
        <vehicle id="background.2" x="100.79" y="-1.60" angle="90.00" type="human" speed="13.68" pos="100.79" lane="e0_0" slope="0.00"/>
        <vehicle id="background.3" x="78.98" y="-1.60" angle="90.00" type="human" speed="13.46" pos="78.98" lane="e0_0" slope="0.00"/>
        <vehicle id="ego" x="194.25" y="-1.60" angle="90.00" type="ego_type" speed="13.06" pos="194.25" lane="e0_0" slope="0.00"/>
    </timestep>
    <timestep time="75.50">
        <vehicle id="background.2" x="107.56" y="-1.60" angle="90.00" type="human" speed="13.55" pos="107.56" lane="e0_0" slope="0.00"/>