<?xml version="1.0" encoding="UTF-8"?>

<!-- generated on 2026-05-14 17:04:45 by Eclipse SUMO sumo Version 1.24.0
<sumoConfiguration xmlns:xsi="http://www.w3.org/2001/XMLSchema-instance" xsi:noNamespaceSchemaLocation="http://sumo.dlr.de/xsd/sumoConfiguration.xsd">

    <input>
        <net-file value="scenarios/simple_arterial/simple_arterial.net.xml"/>
        <route-files value="scenarios/simple_arterial/simple_arterial.rou.xml"/>
        <additional-files value="scenarios/simple_arterial/simple_arterial.tls.xml"/>
    </input>

    <output>
        <fcd-output value="runs/fcd_expert_default/episode_00050_seed_92.fcd.xml"/>
    </output>

    <time>
        <begin value="0"/>
        <end value="900"/>
        <step-length value="0.5"/>
    </time>

    <report>
        <no-warnings value="true"/>
    </report>

    <traci_server>
        <remote-port value="24542"/>
    </traci_server>

    <random_number>
        <seed value="92"/>
    </random_number>

</sumoConfiguration>
-->

<fcd-export xmlns:xsi="http://www.w3.org/2001/XMLSchema-instance" xsi:noNamespaceSchemaLocation="http://sumo.dlr.de/xsd/fcd_file.xsd">
    <timestep time="0.00"/>
    <timestep time="0.50"/>
    <timestep time="1.00"/>
    <timestep time="1.50"/>
    <timestep time="2.00"/>
    <timestep time="2.50"/>
    <timestep time="3.00"/>
    <timestep time="3.50">
        <vehicle id="background.0" x="5.10" y="-1.60" angle="90.00" type="human" speed="13.89" pos="5.10" lane="e0_0" slope="0.00"/>
    </timestep>
    <timestep time="4.00">
        <vehicle id="background.0" x="11.89" y="-1.60" angle="90.00" type="human" speed="13.59" pos="11.89" lane="e0_0" slope="0.00"/>
    </timestep>
    <timestep time="4.50">
        <vehicle id="background.0" x="18.69" y="-1.60" angle="90.00" type="human" speed="13.60" pos="18.69" lane="e0_0" slope="0.00"/>
        <vehicle id="background.1" x="5.10" y="-1.60" angle="90.00" type="human" speed="11.47" pos="5.10" lane="e0_0" slope="0.00"/>
    </timestep>
    <timestep time="5.00">
        <vehicle id="background.0" x="25.47" y="-1.60" angle="90.00" type="human" speed="13.56" pos="25.47" lane="e0_0" slope="0.00"/>
        <vehicle id="background.1" x="10.62" y="-1.60" angle="90.00" type="human" speed="11.03" pos="10.62" lane="e0_0" slope="0.00"/>
    </timestep>
    <timestep time="5.50">
        <vehicle id="background.0" x="32.34" y="-1.60" angle="90.00" type="human" speed="13.74" pos="32.34" lane="e0_0" slope="0.00"/>
        <vehicle id="background.1" x="16.46" y="-1.60" angle="90.00" type="human" speed="11.69" pos="16.46" lane="e0_0" slope="0.00"/>
    </timestep>
    <timestep time="6.00">
        <vehicle id="background.0" x="39.05" y="-1.60" angle="90.00" type="human" speed="13.41" pos="39.05" lane="e0_0" slope="0.00"/>
        <vehicle id="background.1" x="22.55" y="-1.60" angle="90.00" type="human" speed="12.19" pos="22.55" lane="e0_0" slope="0.00"/>
    </timestep>
    <timestep time="6.50">
        <vehicle id="background.0" x="45.86" y="-1.60" angle="90.00" type="human" speed="13.62" pos="45.86" lane="e0_0" slope="0.00"/>
        <vehicle id="background.1" x="28.59" y="-1.60" angle="90.00" type="human" speed="12.08" pos="28.59" lane="e0_0" slope="0.00"/>
    </timestep>
    <timestep time="7.00">
        <vehicle id="background.0" x="52.64" y="-1.60" angle="90.00" type="human" speed="13.56" pos="52.64" lane="e0_0" slope="0.00"/>
        <vehicle id="background.1" x="34.73" y="-1.60" angle="90.00" type="human" speed="12.28" pos="34.73" lane="e0_0" slope="0.00"/>
    </timestep>
    <timestep time="7.50">
        <vehicle id="background.0" x="59.33" y="-1.60" angle="90.00" type="human" speed="13.39" pos="59.33" lane="e0_0" slope="0.00"/>
        <vehicle id="background.1" x="41.04" y="-1.60" angle="90.00" type="human" speed="12.61" pos="41.04" lane="e0_0" slope="0.00"/>
        <vehicle id="background.2" x="5.10" y="-1.60" angle="90.00" type="human" speed="13.87" pos="5.10" lane="e0_0" slope="0.00"/>
    </timestep>
    <timestep time="8.00">
        <vehicle id="background.0" x="66.09" y="-1.60" angle="90.00" type="human" speed="13.51" pos="66.09" lane="e0_0" slope="0.00"/>
        <vehicle id="background.1" x="47.25" y="-1.60" angle="90.00" type="human" speed="12.43" pos="47.25" lane="e0_0" slope="0.00"/>
        <vehicle id="background.2" x="11.90" y="-1.60" angle="90.00" type="human" speed="13.61" pos="11.90" lane="e0_0" slope="0.00"/>
    </timestep>
    <timestep time="8.50">
        <vehicle id="background.0" x="72.87" y="-1.60" angle="90.00" type="human" speed="13.56" pos="72.87" lane="e0_0" slope="0.00"/>
        <vehicle id="background.1" x="53.51" y="-1.60" angle="90.00" type="human" speed="12.52" pos="53.51" lane="e0_0" slope="0.00"/>
        <vehicle id="background.2" x="18.80" y="-1.60" angle="90.00" type="human" speed="13.78" pos="18.80" lane="e0_0" slope="0.00"/>
    </timestep>
    <timestep time="9.00">
        <vehicle id="background.0" x="79.76" y="-1.60" angle="90.00" type="human" speed="13.77" pos="79.76" lane="e0_0" slope="0.00"/>
        <vehicle id="background.1" x="59.95" y="-1.60" angle="90.00" type="human" speed="12.88" pos="59.95" lane="e0_0" slope="0.00"/>
        <vehicle id="background.2" x="25.63" y="-1.60" angle="90.00" type="human" speed="13.67" pos="25.63" lane="e0_0" slope="0.00"/>
    </timestep>
    <timestep time="9.50">
        <vehicle id="background.0" x="86.48" y="-1.60" angle="90.00" type="human" speed="13.45" pos="86.48" lane="e0_0" slope="0.00"/>
        <vehicle id="background.1" x="66.44" y="-1.60" angle="90.00" type="human" speed="12.97" pos="66.44" lane="e0_0" slope="0.00"/>
        <vehicle id="background.2" x="32.35" y="-1.60" angle="90.00" type="human" speed="13.44" pos="32.35" lane="e0_0" slope="0.00"/>
    </timestep>
    <timestep time="10.00">
        <vehicle id="background.0" x="93.33" y="-1.60" angle="90.00" type="human" speed="13.69" pos="93.33" lane="e0_0" slope="0.00"/>
        <vehicle id="background.1" x="72.91" y="-1.60" angle="90.00" type="human" speed="12.94" pos="72.91" lane="e0_0" slope="0.00"/>
        <vehicle id="background.2" x="39.17" y="-1.60" angle="90.00" type="human" speed="13.64" pos="39.17" lane="e0_0" slope="0.00"/>
    </timestep>
    <timestep time="10.50">
        <vehicle id="background.0" x="100.10" y="-1.60" angle="90.00" type="human" speed="13.56" pos="100.10" lane="e0_0" slope="0.00"/>
        <vehicle id="background.1" x="79.48" y="-1.60" angle="90.00" type="human" speed="13.14" pos="79.48" lane="e0_0" slope="0.00"/>
        <vehicle id="background.2" x="46.07" y="-1.60" angle="90.00" type="human" speed="13.80" pos="46.07" lane="e0_0" slope="0.00"/>
    </timestep>
    <timestep time="11.00">
        <vehicle id="background.0" x="107.00" y="-1.60" angle="90.00" type="human" speed="13.80" pos="107.00" lane="e0_0" slope="0.00"/>
        <vehicle id="background.1" x="86.18" y="-1.60" angle="90.00" type="human" speed="13.40" pos="86.18" lane="e0_0" slope="0.00"/>
        <vehicle id="background.2" x="52.99" y="-1.60" angle="90.00" type="human" speed="13.84" pos="52.99" lane="e0_0" slope="0.00"/>
    </timestep>
    <timestep time="11.50">
        <vehicle id="background.0" x="113.91" y="-1.60" angle="90.00" type="human" speed="13.81" pos="113.91" lane="e0_0" slope="0.00"/>
        <vehicle id="background.1" x="92.77" y="-1.60" angle="90.00" type="human" speed="13.18" pos="92.77" lane="e0_0" slope="0.00"/>
        <vehicle id="background.2" x="59.90" y="-1.60" angle="90.00" type="human" speed="13.82" pos="59.90" lane="e0_0" slope="0.00"/>
    </timestep>
    <timestep time="12.00">
        <vehicle id="background.0" x="120.70" y="-1.60" angle="90.00" type="human" speed="13.59" pos="120.70" lane="e0_0" slope="0.00"/>
        <vehicle id="background.1" x="99.50" y="-1.60" angle="90.00" type="human" speed="13.46" pos="99.50" lane="e0_0" slope="0.00"/>
        <vehicle id="background.2" x="66.62" y="-1.60" angle="90.00" type="human" speed="13.44" pos="66.62" lane="e0_0" slope="0.00"/>
    </timestep>
    <timestep time="12.50">
        <vehicle id="background.0" x="127.52" y="-1.60" angle="90.00" type="human" speed="13.63" pos="127.52" lane="e0_0" slope="0.00"/>
        <vehicle id="background.1" x="106.23" y="-1.60" angle="90.00" type="human" speed="13.46" pos="106.23" lane="e0_0" slope="0.00"/>
        <vehicle id="background.2" x="73.35" y="-1.60" angle="90.00" type="human" speed="13.46" pos="73.35" lane="e0_0" slope="0.00"/>
    </timestep>
    <timestep time="13.00">
        <vehicle id="background.0" x="134.32" y="-1.60" angle="90.00" type="human" speed="13.61" pos="134.32" lane="e0_0" slope="0.00"/>
        <vehicle id="background.1" x="112.90" y="-1.60" angle="90.00" type="human" speed="13.33" pos="112.90" lane="e0_0" slope="0.00"/>
        <vehicle id="background.2" x="80.18" y="-1.60" angle="90.00" type="human" speed="13.67" pos="80.18" lane="e0_0" slope="0.00"/>
    </timestep>
    <timestep time="13.50">
        <vehicle id="background.0" x="141.14" y="-1.60" angle="90.00" type="human" speed="13.64" pos="141.14" lane="e0_0" slope="0.00"/>
        <vehicle id="background.1" x="119.44" y="-1.60" angle="90.00" type="human" speed="13.09" pos="119.44" lane="e0_0" slope="0.00"/>
        <vehicle id="background.2" x="87.11" y="-1.60" angle="90.00" type="human" speed="13.85" pos="87.11" lane="e0_0" slope="0.00"/>
    </timestep>
    <timestep time="14.00">
        <vehicle id="background.0" x="147.89" y="-1.60" angle="90.00" type="human" speed="13.50" pos="147.89" lane="e0_0" slope="0.00"/>
        <vehicle id="background.1" x="126.14" y="-1.60" angle="90.00" type="human" speed="13.40" pos="126.14" lane="e0_0" slope="0.00"/>
        <vehicle id="background.2" x="93.85" y="-1.60" angle="90.00" type="human" speed="13.49" pos="93.85" lane="e0_0" slope="0.00"/>
    </timestep>
    <timestep time="14.50">
        <vehicle id="background.0" x="154.67" y="-1.60" angle="90.00" type="human" speed="13.57" pos="154.67" lane="e0_0" slope="0.00"/>
        <vehicle id="background.1" x="132.86" y="-1.60" angle="90.00" type="human" speed="13.44" pos="132.86" lane="e0_0" slope="0.00"/>
        <vehicle id="background.2" x="100.57" y="-1.60" angle="90.00" type="human" speed="13.44" pos="100.57" lane="e0_0" slope="0.00"/>
    </timestep>
    <timestep time="15.00">
        <vehicle id="background.0" x="161.38" y="-1.60" angle="90.00" type="human" speed="13.41" pos="161.38" lane="e0_0" slope="0.00"/>
        <vehicle id="background.1" x="139.36" y="-1.60" angle="90.00" type="human" speed="13.00" pos="139.36" lane="e0_0" slope="0.00"/>
        <vehicle id="background.2" x="107.30" y="-1.60" angle="90.00" type="human" speed="13.45" pos="107.30" lane="e0_0" slope="0.00"/>
    </timestep>
    <timestep time="15.50">
        <vehicle id="background.0" x="168.27" y="-1.60" angle="90.00" type="human" speed="13.79" pos="168.27" lane="e0_0" slope="0.00"/>
        <vehicle id="background.1" x="146.04" y="-1.60" angle="90.00" type="human" speed="13.35" pos="146.04" lane="e0_0" slope="0.00"/>
        <vehicle id="background.2" x="114.21" y="-1.60" angle="90.00" type="human" speed="13.82" pos="114.21" lane="e0_0" slope="0.00"/>
    </timestep>
    <timestep time="16.00">
        <vehicle id="background.0" x="175.10" y="-1.60" angle="90.00" type="human" speed="13.65" pos="175.10" lane="e0_0" slope="0.00"/>
        <vehicle id="background.1" x="152.77" y="-1.60" angle="90.00" type="human" speed="13.45" pos="152.77" lane="e0_0" slope="0.00"/>
        <vehicle id="background.2" x="121.02" y="-1.60" angle="90.00" type="human" speed="13.64" pos="121.02" lane="e0_0" slope="0.00"/>
    </timestep>
    <timestep time="16.50">
        <vehicle id="background.0" x="181.95" y="-1.60" angle="90.00" type="human" speed="13.70" pos="181.95" lane="e0_0" slope="0.00"/>
        <vehicle id="background.1" x="159.35" y="-1.60" angle="90.00" type="human" speed="13.16" pos="159.35" lane="e0_0" slope="0.00"/>
        <vehicle id="background.2" x="127.92" y="-1.60" angle="90.00" type="human" speed="13.79" pos="127.92" lane="e0_0" slope="0.00"/>
    </timestep>
    <timestep time="17.00">
        <vehicle id="background.0" x="188.84" y="-1.60" angle="90.00" type="human" speed="13.79" pos="188.84" lane="e0_0" slope="0.00"/>
        <vehicle id="background.1" x="165.97" y="-1.60" angle="90.00" type="human" speed="13.26" pos="165.97" lane="e0_0" slope="0.00"/>
        <vehicle id="background.2" x="134.76" y="-1.60" angle="90.00" type="human" speed="13.69" pos="134.76" lane="e0_0" slope="0.00"/>
    </timestep>
    <timestep time="17.50">
        <vehicle id="background.0" x="195.75" y="-1.60" angle="90.00" type="human" speed="13.82" pos="195.75" lane="e0_0" slope="0.00"/>
        <vehicle id="background.1" x="172.65" y="-1.60" angle="90.00" type="human" speed="13.35" pos="172.65" lane="e0_0" slope="0.00"/>
        <vehicle id="background.2" x="141.52" y="-1.60" angle="90.00" type="human" speed="13.51" pos="141.52" lane="e0_0" slope="0.00"/>
    </timestep>
    <timestep time="18.00">
        <vehicle id="background.0" x="202.61" y="-1.60" angle="90.00" type="human" speed="13.73" pos="202.61" lane="e0_0" slope="0.00"/>
        <vehicle id="background.1" x="179.19" y="-1.60" angle="90.00" type="human" speed="13.08" pos="179.19" lane="e0_0" slope="0.00"/>
        <vehicle id="background.2" x="148.32" y="-1.60" angle="90.00" type="human" speed="13.60" pos="148.32" lane="e0_0" slope="0.00"/>
    </timestep>
    <timestep time="18.50">
        <vehicle id="background.0" x="209.52" y="-1.60" angle="90.00" type="human" speed="13.82" pos="209.52" lane="e0_0" slope="0.00"/>
        <vehicle id="background.1" x="185.72" y="-1.60" angle="90.00" type="human" speed="13.06" pos="185.72" lane="e0_0" slope="0.00"/>
        <vehicle id="background.2" x="155.03" y="-1.60" angle="90.00" type="human" speed="13.42" pos="155.03" lane="e0_0" slope="0.00"/>
    </timestep>
    <timestep time="19.00">
        <vehicle id="background.0" x="216.23" y="-1.60" angle="90.00" type="human" speed="13.42" pos="216.23" lane="e0_0" slope="0.00"/>
        <vehicle id="background.1" x="192.24" y="-1.60" angle="90.00" type="human" speed="13.04" pos="192.24" lane="e0_0" slope="0.00"/>
        <vehicle id="background.2" x="161.85" y="-1.60" angle="90.00" type="human" speed="13.65" pos="161.85" lane="e0_0" slope="0.00"/>
    </timestep>
    <timestep time="19.50">
        <vehicle id="background.0" x="223.17" y="-1.60" angle="90.00" type="human" speed="13.89" pos="223.17" lane="e0_0" slope="0.00"/>
        <vehicle id="background.1" x="198.87" y="-1.60" angle="90.00" type="human" speed="13.26" pos="198.87" lane="e0_0" slope="0.00"/>
        <vehicle id="background.2" x="168.63" y="-1.60" angle="90.00" type="human" speed="13.55" pos="168.63" lane="e0_0" slope="0.00"/>
    </timestep>
    <timestep time="20.00">
        <vehicle id="background.0" x="229.89" y="-1.60" angle="90.00" type="human" speed="13.43" pos="229.89" lane="e0_0" slope="0.00"/>
        <vehicle id="background.1" x="205.38" y="-1.60" angle="90.00" type="human" speed="13.03" pos="205.38" lane="e0_0" slope="0.00"/>
        <vehicle id="background.2" x="175.53" y="-1.60" angle="90.00" type="human" speed="13.81" pos="175.53" lane="e0_0" slope="0.00"/>
    </timestep>
    <timestep time="20.50">
        <vehicle id="background.0" x="236.80" y="-1.60" angle="90.00" type="human" speed="13.83" pos="236.80" lane="e0_0" slope="0.00"/>
        <vehicle id="background.1" x="212.08" y="-1.60" angle="90.00" type="human" speed="13.40" pos="212.08" lane="e0_0" slope="0.00"/>
        <vehicle id="background.2" x="182.24" y="-1.60" angle="90.00" type="human" speed="13.42" pos="182.24" lane="e0_0" slope="0.00"/>
    </timestep>
    <timestep time="21.00">
        <vehicle id="background.0" x="243.63" y="-1.60" angle="90.00" type="human" speed="13.66" pos="243.63" lane="e0_0" slope="0.00"/>
        <vehicle id="background.1" x="218.80" y="-1.60" angle="90.00" type="human" speed="13.43" pos="218.80" lane="e0_0" slope="0.00"/>
        <vehicle id="background.2" x="188.94" y="-1.60" angle="90.00" type="human" speed="13.40" pos="188.94" lane="e0_0" slope="0.00"/>
    </timestep>
    <timestep time="21.50">
        <vehicle id="background.0" x="250.36" y="-1.60" angle="90.00" type="human" speed="13.47" pos="250.36" lane="e0_0" slope="0.00"/>
        <vehicle id="background.1" x="225.40" y="-1.60" angle="90.00" type="human" speed="13.20" pos="225.40" lane="e0_0" slope="0.00"/>
        <vehicle id="background.2" x="195.67" y="-1.60" angle="90.00" type="human" speed="13.45" pos="195.67" lane="e0_0" slope="0.00"/>
    </timestep>
    <timestep time="22.00">
        <vehicle id="background.0" x="257.31" y="-1.60" angle="90.00" type="human" speed="13.89" pos="257.31" lane="e0_0" slope="0.00"/>
        <vehicle id="background.1" x="232.06" y="-1.60" angle="90.00" type="human" speed="13.33" pos="232.06" lane="e0_0" slope="0.00"/>
        <vehicle id="background.2" x="202.59" y="-1.60" angle="90.00" type="human" speed="13.85" pos="202.59" lane="e0_0" slope="0.00"/>
    </timestep>
    <timestep time="22.50">
        <vehicle id="background.0" x="264.02" y="-1.60" angle="90.00" type="human" speed="13.42" pos="264.02" lane="e0_0" slope="0.00"/>
        <vehicle id="background.1" x="238.70" y="-1.60" angle="90.00" type="human" speed="13.28" pos="238.70" lane="e0_0" slope="0.00"/>
        <vehicle id="background.2" x="209.42" y="-1.60" angle="90.00" type="human" speed="13.65" pos="209.42" lane="e0_0" slope="0.00"/>
    </timestep>
    <timestep time="23.00">
        <vehicle id="background.0" x="270.79" y="-1.60" angle="90.00" type="human" speed="13.53" pos="270.79" lane="e0_0" slope="0.00"/>
        <vehicle id="background.1" x="245.29" y="-1.60" angle="90.00" type="human" speed="13.18" pos="245.29" lane="e0_0" slope="0.00"/>
        <vehicle id="background.2" x="216.15" y="-1.60" angle="90.00" type="human" speed="13.48" pos="216.15" lane="e0_0" slope="0.00"/>
    </timestep>
    <timestep time="23.50">
        <vehicle id="background.0" x="277.51" y="-1.60" angle="90.00" type="human" speed="13.44" pos="277.51" lane="e0_0" slope="0.00"/>
        <vehicle id="background.1" x="251.88" y="-1.60" angle="90.00" type="human" speed="13.17" pos="251.88" lane="e0_0" slope="0.00"/>
        <vehicle id="background.2" x="222.92" y="-1.60" angle="90.00" type="human" speed="13.54" pos="222.92" lane="e0_0" slope="0.00"/>
    </timestep>
    <timestep time="24.00">
        <vehicle id="background.0" x="284.43" y="-1.60" angle="90.00" type="human" speed="13.84" pos="284.43" lane="e0_0" slope="0.00"/>
        <vehicle id="background.1" x="258.40" y="-1.60" angle="90.00" type="human" speed="13.04" pos="258.40" lane="e0_0" slope="0.00"/>
        <vehicle id="background.2" x="229.75" y="-1.60" angle="90.00" type="human" speed="13.65" pos="229.75" lane="e0_0" slope="0.00"/>
    </timestep>
    <timestep time="24.50">
        <vehicle id="background.0" x="291.21" y="-1.60" angle="90.00" type="human" speed="13.56" pos="291.21" lane="e0_0" slope="0.00"/>
        <vehicle id="background.1" x="265.09" y="-1.60" angle="90.00" type="human" speed="13.39" pos="265.09" lane="e0_0" slope="0.00"/>
        <vehicle id="background.2" x="236.68" y="-1.60" angle="90.00" type="human" speed="13.87" pos="236.68" lane="e0_0" slope="0.00"/>
    </timestep>
    <timestep time="25.00">
        <vehicle id="background.0" x="297.98" y="-1.60" angle="90.00" type="human" speed="13.54" pos="297.98" lane="e0_0" slope="0.00"/>
        <vehicle id="background.1" x="271.61" y="-1.60" angle="90.00" type="human" speed="13.03" pos="271.61" lane="e0_0" slope="0.00"/>
        <vehicle id="background.2" x="243.56" y="-1.60" angle="90.00" type="human" speed="13.77" pos="243.56" lane="e0_0" slope="0.00"/>
    </timestep>
    <timestep time="25.50">
        <vehicle id="background.0" x="304.78" y="-1.60" angle="90.00" type="human" speed="13.81" pos="4.78" lane="e1_0" slope="0.00"/>
        <vehicle id="background.1" x="278.34" y="-1.60" angle="90.00" type="human" speed="13.47" pos="278.34" lane="e0_0" slope="0.00"/>
        <vehicle id="background.2" x="250.31" y="-1.60" angle="90.00" type="human" speed="13.49" pos="250.31" lane="e0_0" slope="0.00"/>
    </timestep>
    <timestep time="26.00">
        <vehicle id="background.0" x="311.55" y="-1.60" angle="90.00" type="human" speed="13.53" pos="11.55" lane="e1_0" slope="0.00"/>
        <vehicle id="background.1" x="285.08" y="-1.60" angle="90.00" type="human" speed="13.47" pos="285.08" lane="e0_0" slope="0.00"/>
        <vehicle id="background.2" x="257.20" y="-1.60" angle="90.00" type="human" speed="13.79" pos="257.20" lane="e0_0" slope="0.00"/>
    </timestep>
    <timestep time="26.50">
        <vehicle id="background.0" x="318.29" y="-1.60" angle="90.00" type="human" speed="13.50" pos="18.29" lane="e1_0" slope="0.00"/>
        <vehicle id="background.1" x="291.76" y="-1.60" angle="90.00" type="human" speed="13.36" pos="291.76" lane="e0_0" slope="0.00"/>
        <vehicle id="background.2" x="264.03" y="-1.60" angle="90.00" type="human" speed="13.65" pos="264.03" lane="e0_0" slope="0.00"/>
    </timestep>
    <timestep time="27.00">
        <vehicle id="background.0" x="325.09" y="-1.60" angle="90.00" type="human" speed="13.59" pos="25.09" lane="e1_0" slope="0.00"/>
        <vehicle id="background.1" x="298.45" y="-1.60" angle="90.00" type="human" speed="13.38" pos="298.45" lane="e0_0" slope="0.00"/>
        <vehicle id="background.2" x="270.74" y="-1.60" angle="90.00" type="human" speed="13.42" pos="270.74" lane="e0_0" slope="0.00"/>
    </timestep>
    <timestep time="27.50">
        <vehicle id="background.0" x="331.89" y="-1.60" angle="90.00" type="human" speed="13.60" pos="31.89" lane="e1_0" slope="0.00"/>
        <vehicle id="background.1" x="304.97" y="-1.60" angle="90.00" type="human" speed="13.24" pos="4.97" lane="e1_0" slope="0.00"/>
        <vehicle id="background.2" x="277.60" y="-1.60" angle="90.00" type="human" speed="13.73" pos="277.60" lane="e0_0" slope="0.00"/>
    </timestep>
    <timestep time="28.00">
        <vehicle id="background.0" x="338.66" y="-1.60" angle="90.00" type="human" speed="13.55" pos="38.66" lane="e1_0" slope="0.00"/>
        <vehicle id="background.1" x="311.58" y="-1.60" angle="90.00" type="human" speed="13.22" pos="11.58" lane="e1_0" slope="0.00"/>
        <vehicle id="background.2" x="284.39" y="-1.60" angle="90.00" type="human" speed="13.56" pos="284.39" lane="e0_0" slope="0.00"/>
    </timestep>
    <timestep time="28.50">
        <vehicle id="background.0" x="345.50" y="-1.60" angle="90.00" type="human" speed="13.68" pos="45.50" lane="e1_0" slope="0.00"/>
        <vehicle id="background.1" x="318.23" y="-1.60" angle="90.00" type="human" speed="13.30" pos="18.23" lane="e1_0" slope="0.00"/>
        <vehicle id="background.2" x="291.14" y="-1.60" angle="90.00" type="human" speed="13.50" pos="291.14" lane="e0_0" slope="0.00"/>
    </timestep>
    <timestep time="29.00">
        <vehicle id="background.1" x="324.92" y="-1.60" angle="90.00" type="human" speed="13.38" pos="24.92" lane="e1_0" slope="0.00"/>
        <vehicle id="background.2" x="298.02" y="-1.60" angle="90.00" type="human" speed="13.77" pos="298.02" lane="e0_0" slope="0.00"/>
    </timestep>
    <timestep time="29.50">
        <vehicle id="background.1" x="331.57" y="-1.60" angle="90.00" type="human" speed="13.29" pos="31.57" lane="e1_0" slope="0.00"/>
        <vehicle id="background.2" x="304.81" y="-1.60" angle="90.00" type="human" speed="13.77" pos="4.81" lane="e1_0" slope="0.00"/>
    </timestep>
    <timestep time="30.00">
        <vehicle id="background.1" x="338.28" y="-1.60" angle="90.00" type="human" speed="13.43" pos="38.28" lane="e1_0" slope="0.00"/>
        <vehicle id="background.2" x="311.62" y="-1.60" angle="90.00" type="human" speed="13.62" pos="11.62" lane="e1_0" slope="0.00"/>
        <vehicle id="background.3" x="5.10" y="-1.60" angle="90.00" type="human" speed="13.89" pos="5.10" lane="e0_0" slope="0.00"/>
    </timestep>
    <timestep time="30.50">
        <vehicle id="background.1" x="344.94" y="-1.60" angle="90.00" type="human" speed="13.31" pos="44.94" lane="e1_0" slope="0.00"/>
        <vehicle id="background.2" x="318.52" y="-1.60" angle="90.00" type="human" speed="13.82" pos="18.52" lane="e1_0" slope="0.00"/>
        <vehicle id="background.3" x="11.84" y="-1.60" angle="90.00" type="human" speed="13.48" pos="11.84" lane="e0_0" slope="0.00"/>
    </timestep>
    <timestep time="31.00">
        <vehicle id="background.2" x="325.22" y="-1.60" angle="90.00" type="human" speed="13.39" pos="25.22" lane="e1_0" slope="0.00"/>
        <vehicle id="background.3" x="18.68" y="-1.60" angle="90.00" type="human" speed="13.68" pos="18.68" lane="e0_0" slope="0.00"/>
    </timestep>
    <timestep time="31.50">
        <vehicle id="background.2" x="332.04" y="-1.60" angle="90.00" type="human" speed="13.64" pos="32.04" lane="e1_0" slope="0.00"/>
        <vehicle id="background.3" x="25.58" y="-1.60" angle="90.00" type="human" speed="13.80" pos="25.58" lane="e0_0" slope="0.00"/>
    </timestep>
    <timestep time="32.00">
        <vehicle id="background.2" x="338.85" y="-1.60" angle="90.00" type="human" speed="13.63" pos="38.85" lane="e1_0" slope="0.00"/>
        <vehicle id="background.3" x="32.43" y="-1.60" angle="90.00" type="human" speed="13.69" pos="32.43" lane="e0_0" slope="0.00"/>
    </timestep>
    <timestep time="32.50">
        <vehicle id="background.2" x="345.59" y="-1.60" angle="90.00" type="human" speed="13.46" pos="45.59" lane="e1_0" slope="0.00"/>
        <vehicle id="background.3" x="39.18" y="-1.60" angle="90.00" type="human" speed="13.50" pos="39.18" lane="e0_0" slope="0.00"/>
    </timestep>
    <timestep time="33.00">
        <vehicle id="background.3" x="45.87" y="-1.60" angle="90.00" type="human" speed="13.39" pos="45.87" lane="e0_0" slope="0.00"/>
    </timestep>
    <timestep time="33.50">
        <vehicle id="background.3" x="52.78" y="-1.60" angle="90.00" type="human" speed="13.81" pos="52.78" lane="e0_0" slope="0.00"/>
    </timestep>
    <timestep time="34.00">
        <vehicle id="background.3" x="59.65" y="-1.60" angle="90.00" type="human" speed="13.74" pos="59.65" lane="e0_0" slope="0.00"/>
    </timestep>
    <timestep time="34.50">
        <vehicle id="background.3" x="66.41" y="-1.60" angle="90.00" type="human" speed="13.51" pos="66.41" lane="e0_0" slope="0.00"/>
    </timestep>
    <timestep time="35.00">
        <vehicle id="background.3" x="73.30" y="-1.60" angle="90.00" type="human" speed="13.78" pos="73.30" lane="e0_0" slope="0.00"/>
    </timestep>
    <timestep time="35.50">
        <vehicle id="background.3" x="80.05" y="-1.60" angle="90.00" type="human" speed="13.50" pos="80.05" lane="e0_0" slope="0.00"/>
    </timestep>
    <timestep time="36.00">
        <vehicle id="background.3" x="86.92" y="-1.60" angle="90.00" type="human" speed="13.75" pos="86.92" lane="e0_0" slope="0.00"/>
    </timestep>
    <timestep time="36.50">
        <vehicle id="background.3" x="93.76" y="-1.60" angle="90.00" type="human" speed="13.67" pos="93.76" lane="e0_0" slope="0.00"/>
    </timestep>
    <timestep time="37.00">
        <vehicle id="background.3" x="100.56" y="-1.60" angle="90.00" type="human" speed="13.61" pos="100.56" lane="e0_0" slope="0.00"/>
    </timestep>
    <timestep time="37.50">
        <vehicle id="background.3" x="107.43" y="-1.60" angle="90.00" type="human" speed="13.74" pos="107.43" lane="e0_0" slope="0.00"/>
    </timestep>
    <timestep time="38.00">
        <vehicle id="background.3" x="114.13" y="-1.60" angle="90.00" type="human" speed="13.40" pos="114.13" lane="e0_0" slope="0.00"/>
    </timestep>
    <timestep time="38.50">
        <vehicle id="background.3" x="121.00" y="-1.60" angle="90.00" type="human" speed="13.74" pos="121.00" lane="e0_0" slope="0.00"/>
    </timestep>
    <timestep time="39.00">
        <vehicle id="background.3" x="127.79" y="-1.60" angle="90.00" type="human" speed="13.59" pos="127.79" lane="e0_0" slope="0.00"/>
    </timestep>
    <timestep time="39.50">
        <vehicle id="background.3" x="134.60" y="-1.60" angle="90.00" type="human" speed="13.61" pos="134.60" lane="e0_0" slope="0.00"/>
    </timestep>
    <timestep time="40.00">
        <vehicle id="background.3" x="141.35" y="-1.60" angle="90.00" type="human" speed="13.50" pos="141.35" lane="e0_0" slope="0.00"/>
    </timestep>
    <timestep time="40.50">
        <vehicle id="background.3" x="148.19" y="-1.60" angle="90.00" type="human" speed="13.68" pos="148.19" lane="e0_0" slope="0.00"/>
    </timestep>
    <timestep time="41.00">
        <vehicle id="background.3" x="155.12" y="-1.60" angle="90.00" type="human" speed="13.87" pos="155.12" lane="e0_0" slope="0.00"/>
    </timestep>
    <timestep time="41.50">
        <vehicle id="background.3" x="162.06" y="-1.60" angle="90.00" type="human" speed="13.88" pos="162.06" lane="e0_0" slope="0.00"/>
    </timestep>
    <timestep time="42.00">
        <vehicle id="background.3" x="168.97" y="-1.60" angle="90.00" type="human" speed="13.81" pos="168.97" lane="e0_0" slope="0.00"/>
    </timestep>
    <timestep time="42.50">
        <vehicle id="background.3" x="175.91" y="-1.60" angle="90.00" type="human" speed="13.88" pos="175.91" lane="e0_0" slope="0.00"/>
    </timestep>
    <timestep time="43.00">
        <vehicle id="background.3" x="182.64" y="-1.60" angle="90.00" type="human" speed="13.46" pos="182.64" lane="e0_0" slope="0.00"/>
    </timestep>
    <timestep time="43.50">
        <vehicle id="background.3" x="189.58" y="-1.60" angle="90.00" type="human" speed="13.88" pos="189.58" lane="e0_0" slope="0.00"/>
    </timestep>
    <timestep time="44.00">
        <vehicle id="background.3" x="196.50" y="-1.60" angle="90.00" type="human" speed="13.83" pos="196.50" lane="e0_0" slope="0.00"/>
    </timestep>