<?xml version="1.0" encoding="UTF-8"?>

<!-- generated on 2026-05-15 22:31:30 by Eclipse SUMO sumo Version 1.24.0
<sumoConfiguration xmlns:xsi="http://www.w3.org/2001/XMLSchema-instance" xsi:noNamespaceSchemaLocation="http://sumo.dlr.de/xsd/sumoConfiguration.xsd">

    <input>
        <net-file value="scenarios/simple_arterial/simple_arterial.net.xml"/>
        <route-files value="scenarios/simple_arterial/simple_arterial.rou.xml"/>
        <additional-files value="scenarios/simple_arterial/simple_arterial.tls.xml"/>
    </input>

    <output>
        <fcd-output value="runs/fcd_expert_default/episode_00003_seed_45.fcd.xml"/>
    </output>

    <time>
        <begin value="0"/>
        <end value="900"/>
        <step-length value="0.5"/>
    </time>

    <report>
        <no-warnings value="true"/>
    </report>

    <traci_server>
        <remote-port value="39857"/>
    </traci_server>

    <random_number>
        <seed value="45"/>
    </random_number>

</sumoConfiguration>
-->

<fcd-export xmlns:xsi="http://www.w3.org/2001/XMLSchema-instance" xsi:noNamespaceSchemaLocation="http://sumo.dlr.de/xsd/fcd_file.xsd">
    <timestep time="0.00"/>
    <timestep time="0.50"/>
    <timestep time="1.00"/>
    <timestep time="1.50"/>
    <timestep time="2.00"/>
    <timestep time="2.50"/>
    <timestep time="3.00"/>
    <timestep time="3.50"/>
    <timestep time="4.00"/>
    <timestep time="4.50"/>
    <timestep time="5.00"/>
    <timestep time="5.50"/>
    <timestep time="6.00"/>
    <timestep time="6.50"/>
    <timestep time="7.00"/>
    <timestep time="7.50"/>
    <timestep time="8.00"/>
    <timestep time="8.50"/>
    <timestep time="9.00"/>
    <timestep time="9.50"/>
    <timestep time="10.00"/>
    <timestep time="10.50"/>
    <timestep time="11.00"/>
    <timestep time="11.50"/>
    <timestep time="12.00"/>
    <timestep time="12.50"/>
    <timestep time="13.00"/>
    <timestep time="13.50"/>
    <timestep time="14.00"/>
    <timestep time="14.50"/>
    <timestep time="15.00"/>
    <timestep time="15.50"/>
    <timestep time="16.00"/>
    <timestep time="16.50"/>
    <timestep time="17.00"/>
    <timestep time="17.50"/>
    <timestep time="18.00"/>
    <timestep time="18.50">
        <vehicle id="background.0" x="5.10" y="-1.60" angle="90.00" type="human" speed="13.89" pos="5.10" lane="e0_0" slope="0.00"/>
    </timestep>
    <timestep time="19.00">
        <vehicle id="background.0" x="11.85" y="-1.60" angle="90.00" type="human" speed="13.50" pos="11.85" lane="e0_0" slope="0.00"/>
    </timestep>
    <timestep time="19.50">
        <vehicle id="background.0" x="18.73" y="-1.60" angle="90.00" type="human" speed="13.76" pos="18.73" lane="e0_0" slope="0.00"/>
    </timestep>
    <timestep time="20.00">
        <vehicle id="background.0" x="25.52" y="-1.60" angle="90.00" type="human" speed="13.57" pos="25.52" lane="e0_0" slope="0.00"/>
    </timestep>
    <timestep time="20.50">
        <vehicle id="background.0" x="32.29" y="-1.60" angle="90.00" type="human" speed="13.55" pos="32.29" lane="e0_0" slope="0.00"/>
    </timestep>
    <timestep time="21.00">
        <vehicle id="background.0" x="39.17" y="-1.60" angle="90.00" type="human" speed="13.77" pos="39.17" lane="e0_0" slope="0.00"/>
    </timestep>
    <timestep time="21.50">
        <vehicle id="background.0" x="45.89" y="-1.60" angle="90.00" type="human" speed="13.43" pos="45.89" lane="e0_0" slope="0.00"/>
    </timestep>
    <timestep time="22.00">
        <vehicle id="background.0" x="52.64" y="-1.60" angle="90.00" type="human" speed="13.51" pos="52.64" lane="e0_0" slope="0.00"/>
    </timestep>
    <timestep time="22.50">
        <vehicle id="background.0" x="59.54" y="-1.60" angle="90.00" type="human" speed="13.79" pos="59.54" lane="e0_0" slope="0.00"/>
    </timestep>
    <timestep time="23.00">
        <vehicle id="background.0" x="66.40" y="-1.60" angle="90.00" type="human" speed="13.73" pos="66.40" lane="e0_0" slope="0.00"/>
    </timestep>
    <timestep time="23.50">
        <vehicle id="background.0" x="73.10" y="-1.60" angle="90.00" type="human" speed="13.40" pos="73.10" lane="e0_0" slope="0.00"/>
    </timestep>
    <timestep time="24.00">
        <vehicle id="background.0" x="79.81" y="-1.60" angle="90.00" type="human" speed="13.42" pos="79.81" lane="e0_0" slope="0.00"/>
    </timestep>
    <timestep time="24.50">
        <vehicle id="background.0" x="86.58" y="-1.60" angle="90.00" type="human" speed="13.53" pos="86.58" lane="e0_0" slope="0.00"/>
    </timestep>
    <timestep time="25.00">
        <vehicle id="background.0" x="93.51" y="-1.60" angle="90.00" type="human" speed="13.87" pos="93.51" lane="e0_0" slope="0.00"/>
    </timestep>
    <timestep time="25.50">
        <vehicle id="background.0" x="100.44" y="-1.60" angle="90.00" type="human" speed="13.85" pos="100.44" lane="e0_0" slope="0.00"/>
        <vehicle id="background.1" x="5.10" y="-1.60" angle="90.00" type="human" speed="11.61" pos="5.10" lane="e0_0" slope="0.00"/>
    </timestep>
    <timestep time="26.00">
        <vehicle id="background.0" x="107.27" y="-1.60" angle="90.00" type="human" speed="13.67" pos="107.27" lane="e0_0" slope="0.00"/>
        <vehicle id="background.1" x="10.81" y="-1.60" angle="90.00" type="human" speed="11.41" pos="10.81" lane="e0_0" slope="0.00"/>
    </timestep>
    <timestep time="26.50">
        <vehicle id="background.0" x="113.99" y="-1.60" angle="90.00" type="human" speed="13.43" pos="113.99" lane="e0_0" slope="0.00"/>
        <vehicle id="background.1" x="16.60" y="-1.60" angle="90.00" type="human" speed="11.58" pos="16.60" lane="e0_0" slope="0.00"/>
    </timestep>
    <timestep time="27.00">
        <vehicle id="background.0" x="120.82" y="-1.60" angle="90.00" type="human" speed="13.66" pos="120.82" lane="e0_0" slope="0.00"/>
        <vehicle id="background.1" x="22.34" y="-1.60" angle="90.00" type="human" speed="11.49" pos="22.34" lane="e0_0" slope="0.00"/>
    </timestep>
    <timestep time="27.50">
        <vehicle id="background.0" x="127.64" y="-1.60" angle="90.00" type="human" speed="13.64" pos="127.64" lane="e0_0" slope="0.00"/>
        <vehicle id="background.1" x="28.10" y="-1.60" angle="90.00" type="human" speed="11.52" pos="28.10" lane="e0_0" slope="0.00"/>
    </timestep>
    <timestep time="28.00">
        <vehicle id="background.0" x="134.56" y="-1.60" angle="90.00" type="human" speed="13.85" pos="134.56" lane="e0_0" slope="0.00"/>
        <vehicle id="background.1" x="33.71" y="-1.60" angle="90.00" type="human" speed="11.22" pos="33.71" lane="e0_0" slope="0.00"/>
    </timestep>
    <timestep time="28.50">
        <vehicle id="background.0" x="141.40" y="-1.60" angle="90.00" type="human" speed="13.68" pos="141.40" lane="e0_0" slope="0.00"/>
        <vehicle id="background.1" x="39.44" y="-1.60" angle="90.00" type="human" speed="11.46" pos="39.44" lane="e0_0" slope="0.00"/>
    </timestep>
    <timestep time="29.00">
        <vehicle id="background.0" x="148.16" y="-1.60" angle="90.00" type="human" speed="13.52" pos="148.16" lane="e0_0" slope="0.00"/>
        <vehicle id="background.1" x="45.23" y="-1.60" angle="90.00" type="human" speed="11.58" pos="45.23" lane="e0_0" slope="0.00"/>
    </timestep>
    <timestep time="29.50">
        <vehicle id="background.0" x="154.88" y="-1.60" angle="90.00" type="human" speed="13.46" pos="154.88" lane="e0_0" slope="0.00"/>
        <vehicle id="background.1" x="50.81" y="-1.60" angle="90.00" type="human" speed="11.15" pos="50.81" lane="e0_0" slope="0.00"/>
    </timestep>
    <timestep time="30.00">
        <vehicle id="background.0" x="161.75" y="-1.60" angle="90.00" type="human" speed="13.73" pos="161.75" lane="e0_0" slope="0.00"/>
        <vehicle id="background.1" x="56.38" y="-1.60" angle="90.00" type="human" speed="11.15" pos="56.38" lane="e0_0" slope="0.00"/>
    </timestep>
    <timestep time="30.50">
        <vehicle id="background.0" x="168.67" y="-1.60" angle="90.00" type="human" speed="13.84" pos="168.67" lane="e0_0" slope="0.00"/>
        <vehicle id="background.1" x="62.15" y="-1.60" angle="90.00" type="human" speed="11.53" pos="62.15" lane="e0_0" slope="0.00"/>
    </timestep>
    <timestep time="31.00">
        <vehicle id="background.0" x="175.41" y="-1.60" angle="90.00" type="human" speed="13.49" pos="175.41" lane="e0_0" slope="0.00"/>
        <vehicle id="background.1" x="67.79" y="-1.60" angle="90.00" type="human" speed="11.28" pos="67.79" lane="e0_0" slope="0.00"/>
    </timestep>
    <timestep time="31.50">
        <vehicle id="background.0" x="182.26" y="-1.60" angle="90.00" type="human" speed="13.69" pos="182.26" lane="e0_0" slope="0.00"/>
        <vehicle id="background.1" x="73.55" y="-1.60" angle="90.00" type="human" speed="11.53" pos="73.55" lane="e0_0" slope="0.00"/>
    </timestep>
    <timestep time="32.00">
        <vehicle id="background.0" x="189.05" y="-1.60" angle="90.00" type="human" speed="13.58" pos="189.05" lane="e0_0" slope="0.00"/>
        <vehicle id="background.1" x="79.23" y="-1.60" angle="90.00" type="human" speed="11.35" pos="79.23" lane="e0_0" slope="0.00"/>
    </timestep>
    <timestep time="32.50">
        <vehicle id="background.0" x="195.98" y="-1.60" angle="90.00" type="human" speed="13.87" pos="195.98" lane="e0_0" slope="0.00"/>
        <vehicle id="background.1" x="84.89" y="-1.60" angle="90.00" type="human" speed="11.33" pos="84.89" lane="e0_0" slope="0.00"/>
    </timestep>
    <timestep time="33.00">
        <vehicle id="background.0" x="202.85" y="-1.60" angle="90.00" type="human" speed="13.74" pos="202.85" lane="e0_0" slope="0.00"/>
        <vehicle id="background.1" x="90.64" y="-1.60" angle="90.00" type="human" speed="11.49" pos="90.64" lane="e0_0" slope="0.00"/>
    </timestep>
    <timestep time="33.50">
        <vehicle id="background.0" x="209.79" y="-1.60" angle="90.00" type="human" speed="13.87" pos="209.79" lane="e0_0" slope="0.00"/>
        <vehicle id="background.1" x="96.22" y="-1.60" angle="90.00" type="human" speed="11.17" pos="96.22" lane="e0_0" slope="0.00"/>
    </timestep>
    <timestep time="34.00">
        <vehicle id="background.0" x="216.64" y="-1.60" angle="90.00" type="human" speed="13.70" pos="216.64" lane="e0_0" slope="0.00"/>
        <vehicle id="background.1" x="101.98" y="-1.60" angle="90.00" type="human" speed="11.51" pos="101.98" lane="e0_0" slope="0.00"/>
    </timestep>
    <timestep time="34.50">
        <vehicle id="background.0" x="223.52" y="-1.60" angle="90.00" type="human" speed="13.76" pos="223.52" lane="e0_0" slope="0.00"/>
        <vehicle id="background.1" x="107.67" y="-1.60" angle="90.00" type="human" speed="11.38" pos="107.67" lane="e0_0" slope="0.00"/>
    </timestep>
    <timestep time="35.00">
        <vehicle id="background.0" x="230.21" y="-1.60" angle="90.00" type="human" speed="13.39" pos="230.21" lane="e0_0" slope="0.00"/>
        <vehicle id="background.1" x="113.23" y="-1.60" angle="90.00" type="human" speed="11.13" pos="113.23" lane="e0_0" slope="0.00"/>
    </timestep>
    <timestep time="35.50">
        <vehicle id="background.0" x="237.06" y="-1.60" angle="90.00" type="human" speed="13.69" pos="237.06" lane="e0_0" slope="0.00"/>
        <vehicle id="background.1" x="118.82" y="-1.60" angle="90.00" type="human" speed="11.18" pos="118.82" lane="e0_0" slope="0.00"/>
    </timestep>
    <timestep time="36.00">
        <vehicle id="background.0" x="243.93" y="-1.60" angle="90.00" type="human" speed="13.74" pos="243.93" lane="e0_0" slope="0.00"/>
        <vehicle id="background.1" x="124.60" y="-1.60" angle="90.00" type="human" speed="11.56" pos="124.60" lane="e0_0" slope="0.00"/>
    </timestep>
    <timestep time="36.50">
        <vehicle id="background.0" x="250.82" y="-1.60" angle="90.00" type="human" speed="13.78" pos="250.82" lane="e0_0" slope="0.00"/>
        <vehicle id="background.1" x="130.36" y="-1.60" angle="90.00" type="human" speed="11.52" pos="130.36" lane="e0_0" slope="0.00"/>
    </timestep>
    <timestep time="37.00">
        <vehicle id="background.0" x="257.64" y="-1.60" angle="90.00" type="human" speed="13.64" pos="257.64" lane="e0_0" slope="0.00"/>
        <vehicle id="background.1" x="136.06" y="-1.60" angle="90.00" type="human" speed="11.39" pos="136.06" lane="e0_0" slope="0.00"/>
    </timestep>
    <timestep time="37.50">
        <vehicle id="background.0" x="264.57" y="-1.60" angle="90.00" type="human" speed="13.86" pos="264.57" lane="e0_0" slope="0.00"/>
        <vehicle id="background.1" x="141.75" y="-1.60" angle="90.00" type="human" speed="11.38" pos="141.75" lane="e0_0" slope="0.00"/>
    </timestep>
    <timestep time="38.00">
        <vehicle id="background.0" x="271.44" y="-1.60" angle="90.00" type="human" speed="13.75" pos="271.44" lane="e0_0" slope="0.00"/>
        <vehicle id="background.1" x="147.49" y="-1.60" angle="90.00" type="human" speed="11.47" pos="147.49" lane="e0_0" slope="0.00"/>
    </timestep>
    <timestep time="38.50">
        <vehicle id="background.0" x="278.33" y="-1.60" angle="90.00" type="human" speed="13.77" pos="278.33" lane="e0_0" slope="0.00"/>
        <vehicle id="background.1" x="153.13" y="-1.60" angle="90.00" type="human" speed="11.30" pos="153.13" lane="e0_0" slope="0.00"/>
    </timestep>
    <timestep time="39.00">
        <vehicle id="background.0" x="285.03" y="-1.60" angle="90.00" type="human" speed="13.41" pos="285.03" lane="e0_0" slope="0.00"/>
        <vehicle id="background.1" x="158.84" y="-1.60" angle="90.00" type="human" speed="11.42" pos="158.84" lane="e0_0" slope="0.00"/>
    </timestep>
    <timestep time="39.50">
        <vehicle id="background.0" x="291.82" y="-1.60" angle="90.00" type="human" speed="13.58" pos="291.82" lane="e0_0" slope="0.00"/>
        <vehicle id="background.1" x="164.54" y="-1.60" angle="90.00" type="human" speed="11.39" pos="164.54" lane="e0_0" slope="0.00"/>
    </timestep>
    <timestep time="40.00">
        <vehicle id="background.0" x="298.55" y="-1.60" angle="90.00" type="human" speed="13.46" pos="298.55" lane="e0_0" slope="0.00"/>
        <vehicle id="background.1" x="170.20" y="-1.60" angle="90.00" type="human" speed="11.32" pos="170.20" lane="e0_0" slope="0.00"/>
    </timestep>
    <timestep time="40.50">
        <vehicle id="background.0" x="305.38" y="-1.60" angle="90.00" type="human" speed="13.84" pos="5.38" lane="e1_0" slope="0.00"/>
        <vehicle id="background.1" x="175.90" y="-1.60" angle="90.00" type="human" speed="11.40" pos="175.90" lane="e0_0" slope="0.00"/>
    </timestep>
    <timestep time="41.00">
        <vehicle id="background.0" x="312.29" y="-1.60" angle="90.00" type="human" speed="13.83" pos="12.29" lane="e1_0" slope="0.00"/>
        <vehicle id="background.1" x="181.67" y="-1.60" angle="90.00" type="human" speed="11.53" pos="181.67" lane="e0_0" slope="0.00"/>
    </timestep>
    <timestep time="41.50">
        <vehicle id="background.0" x="319.03" y="-1.60" angle="90.00" type="human" speed="13.46" pos="19.03" lane="e1_0" slope="0.00"/>
        <vehicle id="background.1" x="187.25" y="-1.60" angle="90.00" type="human" speed="11.17" pos="187.25" lane="e0_0" slope="0.00"/>
    </timestep>
    <timestep time="42.00">
        <vehicle id="background.0" x="325.73" y="-1.60" angle="90.00" type="human" speed="13.40" pos="25.73" lane="e1_0" slope="0.00"/>
        <vehicle id="background.1" x="192.89" y="-1.60" angle="90.00" type="human" speed="11.27" pos="192.89" lane="e0_0" slope="0.00"/>
    </timestep>
    <timestep time="42.50">
        <vehicle id="background.0" x="332.44" y="-1.60" angle="90.00" type="human" speed="13.44" pos="32.44" lane="e1_0" slope="0.00"/>
        <vehicle id="background.1" x="198.56" y="-1.60" angle="90.00" type="human" speed="11.34" pos="198.56" lane="e0_0" slope="0.00"/>
    </timestep>
    <timestep time="43.00">
        <vehicle id="background.0" x="339.21" y="-1.60" angle="90.00" type="human" speed="13.53" pos="39.21" lane="e1_0" slope="0.00"/>
        <vehicle id="background.1" x="204.12" y="-1.60" angle="90.00" type="human" speed="11.12" pos="204.12" lane="e0_0" slope="0.00"/>
    </timestep>
    <timestep time="43.50">
        <vehicle id="background.0" x="345.95" y="-1.60" angle="90.00" type="human" speed="13.48" pos="45.95" lane="e1_0" slope="0.00"/>
        <vehicle id="background.1" x="209.70" y="-1.60" angle="90.00" type="human" speed="11.17" pos="209.70" lane="e0_0" slope="0.00"/>
        <vehicle id="background.2" x="5.10" y="-1.60" angle="90.00" type="human" speed="13.73" pos="5.10" lane="e0_0" slope="0.00"/>
    </timestep>
    <timestep time="44.00">
        <vehicle id="background.1" x="215.50" y="-1.60" angle="90.00" type="human" speed="11.60" pos="215.50" lane="e0_0" slope="0.00"/>
        <vehicle id="background.2" x="11.94" y="-1.60" angle="90.00" type="human" speed="13.69" pos="11.94" lane="e0_0" slope="0.00"/>
    </timestep>
    <timestep time="44.50">
        <vehicle id="background.1" x="221.08" y="-1.60" angle="90.00" type="human" speed="11.15" pos="221.08" lane="e0_0" slope="0.00"/>
        <vehicle id="background.2" x="18.63" y="-1.60" angle="90.00" type="human" speed="13.36" pos="18.63" lane="e0_0" slope="0.00"/>
    </timestep>
    <timestep time="45.00">
        <vehicle id="background.1" x="226.87" y="-1.60" angle="90.00" type="human" speed="11.58" pos="226.87" lane="e0_0" slope="0.00"/>
        <vehicle id="background.2" x="25.30" y="-1.60" angle="90.00" type="human" speed="13.35" pos="25.30" lane="e0_0" slope="0.00"/>
    </timestep>
    <timestep time="45.50">
        <vehicle id="background.1" x="232.48" y="-1.60" angle="90.00" type="human" speed="11.23" pos="232.48" lane="e0_0" slope="0.00"/>
        <vehicle id="background.2" x="31.99" y="-1.60" angle="90.00" type="human" speed="13.38" pos="31.99" lane="e0_0" slope="0.00"/>
    </timestep>
    <timestep time="46.00">
        <vehicle id="background.1" x="238.27" y="-1.60" angle="90.00" type="human" speed="11.58" pos="238.27" lane="e0_0" slope="0.00"/>
        <vehicle id="background.2" x="38.73" y="-1.60" angle="90.00" type="human" speed="13.47" pos="38.73" lane="e0_0" slope="0.00"/>
    </timestep>
    <timestep time="46.50">
        <vehicle id="background.1" x="244.01" y="-1.60" angle="90.00" type="human" speed="11.48" pos="244.01" lane="e0_0" slope="0.00"/>
        <vehicle id="background.2" x="45.56" y="-1.60" angle="90.00" type="human" speed="13.68" pos="45.56" lane="e0_0" slope="0.00"/>
    </timestep>
    <timestep time="47.00">
        <vehicle id="background.1" x="249.77" y="-1.60" angle="90.00" type="human" speed="11.52" pos="249.77" lane="e0_0" slope="0.00"/>
        <vehicle id="background.2" x="52.23" y="-1.60" angle="90.00" type="human" speed="13.34" pos="52.23" lane="e0_0" slope="0.00"/>
    </timestep>
    <timestep time="47.50">
        <vehicle id="background.1" x="255.53" y="-1.60" angle="90.00" type="human" speed="11.51" pos="255.53" lane="e0_0" slope="0.00"/>
        <vehicle id="background.2" x="58.99" y="-1.60" angle="90.00" type="human" speed="13.51" pos="58.99" lane="e0_0" slope="0.00"/>
    </timestep>
    <timestep time="48.00">
        <vehicle id="background.1" x="261.30" y="-1.60" angle="90.00" type="human" speed="11.55" pos="261.30" lane="e0_0" slope="0.00"/>
        <vehicle id="background.2" x="65.74" y="-1.60" angle="90.00" type="human" speed="13.51" pos="65.74" lane="e0_0" slope="0.00"/>
    </timestep>
    <timestep time="48.50">
        <vehicle id="background.1" x="266.98" y="-1.60" angle="90.00" type="human" speed="11.35" pos="266.98" lane="e0_0" slope="0.00"/>
        <vehicle id="background.2" x="72.38" y="-1.60" angle="90.00" type="human" speed="13.27" pos="72.38" lane="e0_0" slope="0.00"/>
    </timestep>
    <timestep time="49.00">
        <vehicle id="background.1" x="272.78" y="-1.60" angle="90.00" type="human" speed="11.60" pos="272.78" lane="e0_0" slope="0.00"/>
        <vehicle id="background.2" x="79.24" y="-1.60" angle="90.00" type="human" speed="13.73" pos="79.24" lane="e0_0" slope="0.00"/>
    </timestep>
    <timestep time="49.50">
        <vehicle id="background.1" x="278.39" y="-1.60" angle="90.00" type="human" speed="11.21" pos="278.39" lane="e0_0" slope="0.00"/>
        <vehicle id="background.2" x="85.91" y="-1.60" angle="90.00" type="human" speed="13.34" pos="85.91" lane="e0_0" slope="0.00"/>
    </timestep>
    <timestep time="50.00">
        <vehicle id="background.1" x="283.55" y="-1.60" angle="90.00" type="human" speed="10.32" pos="283.55" lane="e0_0" slope="0.00"/>
        <vehicle id="background.2" x="92.76" y="-1.60" angle="90.00" type="human" speed="13.70" pos="92.76" lane="e0_0" slope="0.00"/>
    </timestep>
    <timestep time="50.50">
        <vehicle id="background.1" x="287.97" y="-1.60" angle="90.00" type="human" speed="8.85" pos="287.97" lane="e0_0" slope="0.00"/>
        <vehicle id="background.2" x="99.46" y="-1.60" angle="90.00" type="human" speed="13.40" pos="99.46" lane="e0_0" slope="0.00"/>
    </timestep>
    <timestep time="51.00">
        <vehicle id="background.1" x="291.64" y="-1.60" angle="90.00" type="human" speed="7.35" pos="291.64" lane="e0_0" slope="0.00"/>
        <vehicle id="background.2" x="106.30" y="-1.60" angle="90.00" type="human" speed="13.67" pos="106.30" lane="e0_0" slope="0.00"/>
    </timestep>
    <timestep time="51.50">
        <vehicle id="background.1" x="294.57" y="-1.60" angle="90.00" type="human" speed="5.85" pos="294.57" lane="e0_0" slope="0.00"/>
        <vehicle id="background.2" x="113.14" y="-1.60" angle="90.00" type="human" speed="13.69" pos="113.14" lane="e0_0" slope="0.00"/>
    </timestep>
    <timestep time="52.00">
        <vehicle id="background.1" x="296.74" y="-1.60" angle="90.00" type="human" speed="4.35" pos="296.74" lane="e0_0" slope="0.00"/>
        <vehicle id="background.2" x="120.00" y="-1.60" angle="90.00" type="human" speed="13.72" pos="120.00" lane="e0_0" slope="0.00"/>
        <vehicle id="ego" x="5.10" y="-1.60" angle="90.00" type="ego_type" speed="6.87" pos="5.10" lane="e0_0" slope="0.00"/>
    </timestep>
    <timestep time="52.50">
        <vehicle id="background.1" x="298.24" y="-1.60" angle="90.00" type="human" speed="3.00" pos="298.24" lane="e0_0" slope="0.00"/>
        <vehicle id="background.2" x="126.73" y="-1.60" angle="90.00" type="human" speed="13.45" pos="126.73" lane="e0_0" slope="0.00"/>
        <vehicle id="ego" x="9.04" y="-1.60" angle="90.00" type="ego_type" speed="7.87" pos="9.04" lane="e0_0" slope="0.00"/>
    </timestep>
    <timestep time="53.00">
        <vehicle id="background.1" x="298.99" y="-1.60" angle="90.00" type="human" speed="1.50" pos="298.99" lane="e0_0" slope="0.00"/>
        <vehicle id="background.2" x="133.42" y="-1.60" angle="90.00" type="human" speed="13.39" pos="133.42" lane="e0_0" slope="0.00"/>
        <vehicle id="ego" x="13.47" y="-1.60" angle="90.00" type="ego_type" speed="8.87" pos="13.47" lane="e0_0" slope="0.00"/>
    </timestep>
    <timestep time="53.50">
        <vehicle id="background.1" x="299.00" y="-1.60" angle="90.00" type="human" speed="0.01" pos="299.00" lane="e0_0" slope="0.00"/>
        <vehicle id="background.2" x="140.27" y="-1.60" angle="90.00" type="human" speed="13.71" pos="140.27" lane="e0_0" slope="0.00"/>
        <vehicle id="ego" x="18.41" y="-1.60" angle="90.00" type="ego_type" speed="9.87" pos="18.41" lane="e0_0" slope="0.00"/>
    </timestep>
    <timestep time="54.00">
        <vehicle id="background.1" x="299.00" y="-1.60" angle="90.00" type="human" speed="0.00" pos="299.00" lane="e0_0" slope="0.00"/>
        <vehicle id="background.2" x="147.01" y="-1.60" angle="90.00" type="human" speed="13.48" pos="147.01" lane="e0_0" slope="0.00"/>
        <vehicle id="ego" x="23.84" y="-1.60" angle="90.00" type="ego_type" speed="10.87" pos="23.84" lane="e0_0" slope="0.00"/>
    </timestep>
    <timestep time="54.50">
        <vehicle id="background.1" x="299.00" y="-1.60" angle="90.00" type="human" speed="0.00" pos="299.00" lane="e0_0" slope="0.00"/>
        <vehicle id="background.2" x="153.82" y="-1.60" angle="90.00" type="human" speed="13.61" pos="153.82" lane="e0_0" slope="0.00"/>
        <vehicle id="ego" x="29.78" y="-1.60" angle="90.00" type="ego_type" speed="11.87" pos="29.78" lane="e0_0" slope="0.00"/>
    </timestep>
    <timestep time="55.00">
        <vehicle id="background.1" x="299.00" y="-1.60" angle="90.00" type="human" speed="0.00" pos="299.00" lane="e0_0" slope="0.00"/>
        <vehicle id="background.2" x="160.56" y="-1.60" angle="90.00" type="human" speed="13.49" pos="160.56" lane="e0_0" slope="0.00"/>
        <vehicle id="ego" x="36.21" y="-1.60" angle="90.00" type="ego_type" speed="12.87" pos="36.21" lane="e0_0" slope="0.00"/>
    </timestep>
    <timestep time="55.50">
        <vehicle id="background.1" x="299.00" y="-1.60" angle="90.00" type="human" speed="0.00" pos="299.00" lane="e0_0" slope="0.00"/>
        <vehicle id="background.2" x="167.22" y="-1.60" angle="90.00" type="human" speed="13.31" pos="167.22" lane="e0_0" slope="0.00"/>
        <vehicle id="ego" x="43.15" y="-1.60" angle="90.00" type="ego_type" speed="13.87" pos="43.15" lane="e0_0" slope="0.00"/>
    </timestep>
    <timestep time="56.00">
        <vehicle id="background.1" x="299.00" y="-1.60" angle="90.00" type="human" speed="0.00" pos="299.00" lane="e0_0" slope="0.00"/>
        <vehicle id="background.2" x="173.98" y="-1.60" angle="90.00" type="human" speed="13.53" pos="173.98" lane="e0_0" slope="0.00"/>
        <vehicle id="ego" x="50.09" y="-1.60" angle="90.00" type="ego_type" speed="13.89" pos="50.09" lane="e0_0" slope="0.00"/>
    </timestep>
    <timestep time="56.50">
        <vehicle id="background.1" x="299.00" y="-1.60" angle="90.00" type="human" speed="0.00" pos="299.00" lane="e0_0" slope="0.00"/>
        <vehicle id="background.2" x="180.80" y="-1.60" angle="90.00" type="human" speed="13.62" pos="180.80" lane="e0_0" slope="0.00"/>
        <vehicle id="background.3" x="5.10" y="-1.60" angle="90.00" type="human" speed="10.15" pos="5.10" lane="e0_0" slope="0.00"/>
        <vehicle id="ego" x="57.04" y="-1.60" angle="90.00" type="ego_type" speed="13.89" pos="57.04" lane="e0_0" slope="0.00"/>
    </timestep>
    <timestep time="57.00">
        <vehicle id="background.1" x="299.00" y="-1.60" angle="90.00" type="human" speed="0.00" pos="299.00" lane="e0_0" slope="0.00"/>
        <vehicle id="background.2" x="187.54" y="-1.60" angle="90.00" type="human" speed="13.49" pos="187.54" lane="e0_0" slope="0.00"/>
        <vehicle id="background.3" x="10.12" y="-1.60" angle="90.00" type="human" speed="10.03" pos="10.12" lane="e0_0" slope="0.00"/>
        <vehicle id="ego" x="63.98" y="-1.60" angle="90.00" type="ego_type" speed="13.89" pos="63.98" lane="e0_0" slope="0.00"/>
    </timestep>
    <timestep time="57.50">
        <vehicle id="background.1" x="299.00" y="-1.60" angle="90.00" type="human" speed="0.00" pos="299.00" lane="e0_0" slope="0.00"/>
        <vehicle id="background.2" x="194.24" y="-1.60" angle="90.00" type="human" speed="13.40" pos="194.24" lane="e0_0" slope="0.00"/>
        <vehicle id="background.3" x="15.05" y="-1.60" angle="90.00" type="human" speed="9.86" pos="15.05" lane="e0_0" slope="0.00"/>
        <vehicle id="ego" x="70.93" y="-1.60" angle="90.00" type="ego_type" speed="13.89" pos="70.93" lane="e0_0" slope="0.00"/>
    </timestep>
    <timestep time="58.00">
        <vehicle id="background.1" x="299.00" y="-1.60" angle="90.00" type="human" speed="0.00" pos="299.00" lane="e0_0" slope="0.00"/>
        <vehicle id="background.2" x="201.00" y="-1.60" angle="90.00" type="human" speed="13.51" pos="201.00" lane="e0_0" slope="0.00"/>
        <vehicle id="background.3" x="19.98" y="-1.60" angle="90.00" type="human" speed="9.86" pos="19.98" lane="e0_0" slope="0.00"/>
        <vehicle id="ego" x="77.87" y="-1.60" angle="90.00" type="ego_type" speed="13.89" pos="77.87" lane="e0_0" slope="0.00"/>
    </timestep>
    <timestep time="58.50">
        <vehicle id="background.1" x="299.00" y="-1.60" angle="90.00" type="human" speed="0.00" pos="299.00" lane="e0_0" slope="0.00"/>
        <vehicle id="background.2" x="207.79" y="-1.60" angle="90.00" type="human" speed="13.58" pos="207.79" lane="e0_0" slope="0.00"/>
        <vehicle id="background.3" x="24.89" y="-1.60" angle="90.00" type="human" speed="9.82" pos="24.89" lane="e0_0" slope="0.00"/>
        <vehicle id="ego" x="84.82" y="-1.60" angle="90.00" type="ego_type" speed="13.89" pos="84.82" lane="e0_0" slope="0.00"/>
    </timestep>
    <timestep time="59.00">
        <vehicle id="background.1" x="299.00" y="-1.60" angle="90.00" type="human" speed="0.00" pos="299.00" lane="e0_0" slope="0.00"/>
        <vehicle id="background.2" x="214.63" y="-1.60" angle="90.00" type="human" speed="13.69" pos="214.63" lane="e0_0" slope="0.00"/>
        <vehicle id="background.3" x="29.87" y="-1.60" angle="90.00" type="human" speed="9.97" pos="29.87" lane="e0_0" slope="0.00"/>
        <vehicle id="ego" x="91.76" y="-1.60" angle="90.00" type="ego_type" speed="13.89" pos="91.76" lane="e0_0" slope="0.00"/>
    </timestep>
    <timestep time="59.50">
        <vehicle id="background.1" x="299.00" y="-1.60" angle="90.00" type="human" speed="0.00" pos="299.00" lane="e0_0" slope="0.00"/>
        <vehicle id="background.2" x="221.35" y="-1.60" angle="90.00" type="human" speed="13.45" pos="221.35" lane="e0_0" slope="0.00"/>
        <vehicle id="background.3" x="34.74" y="-1.60" angle="90.00" type="human" speed="9.74" pos="34.74" lane="e0_0" slope="0.00"/>
        <vehicle id="ego" x="98.71" y="-1.60" angle="90.00" type="ego_type" speed="13.89" pos="98.71" lane="e0_0" slope="0.00"/>
    </timestep>
    <timestep time="60.00">
        <vehicle id="background.1" x="299.00" y="-1.60" angle="90.00" type="human" speed="0.00" pos="299.00" lane="e0_0" slope="0.00"/>
        <vehicle id="background.2" x="228.10" y="-1.60" angle="90.00" type="human" speed="13.50" pos="228.10" lane="e0_0" slope="0.00"/>