<?xml version="1.0" encoding="UTF-8"?>

<!-- generated on 2026-05-14 17:05:15 by Eclipse SUMO sumo Version 1.24.0
<sumoConfiguration xmlns:xsi="http://www.w3.org/2001/XMLSchema-instance" xsi:noNamespaceSchemaLocation="http://sumo.dlr.de/xsd/sumoConfiguration.xsd">

    <input>
        <net-file value="scenarios/simple_arterial/simple_arterial.net.xml"/>
        <route-files value="scenarios/simple_arterial/simple_arterial.rou.xml"/>
        <additional-files value="scenarios/simple_arterial/simple_arterial.tls.xml"/>
    </input>

    <output>
        <fcd-output value="runs/fcd_expert_default/episode_00076_seed_118.fcd.xml"/>
    </output>

    <time>
        <begin value="0"/>
        <end value="900"/>
        <step-length value="0.5"/>
    </time>

    <report>
        <no-warnings value="true"/>
    </report>

    <traci_server>
        <remote-port value="24542"/>
    </traci_server>

    <random_number>
        <seed value="118"/>
    </random_number>

</sumoConfiguration>
-->

<fcd-export xmlns:xsi="http://www.w3.org/2001/XMLSchema-instance" xsi:noNamespaceSchemaLocation="http://sumo.dlr.de/xsd/fcd_file.xsd">
    <timestep time="0.00"/>
    <timestep time="0.50"/>
    <timestep time="1.00"/>
    <timestep time="1.50"/>
    <timestep time="2.00"/>
    <timestep time="2.50"/>
    <timestep time="3.00"/>
    <timestep time="3.50"/>
    <timestep time="4.00"/>
    <timestep time="4.50"/>
    <timestep time="5.00"/>
    <timestep time="5.50"/>
    <timestep time="6.00"/>
    <timestep time="6.50"/>
    <timestep time="7.00"/>
    <timestep time="7.50">
        <vehicle id="background.0" x="5.10" y="-1.60" angle="90.00" type="human" speed="13.89" pos="5.10" lane="e0_0" slope="0.00"/>
    </timestep>
    <timestep time="8.00">
        <vehicle id="background.0" x="11.83" y="-1.60" angle="90.00" type="human" speed="13.47" pos="11.83" lane="e0_0" slope="0.00"/>
    </timestep>
    <timestep time="8.50">
        <vehicle id="background.0" x="18.74" y="-1.60" angle="90.00" type="human" speed="13.81" pos="18.74" lane="e0_0" slope="0.00"/>
    </timestep>
    <timestep time="9.00">
        <vehicle id="background.0" x="25.56" y="-1.60" angle="90.00" type="human" speed="13.64" pos="25.56" lane="e0_0" slope="0.00"/>
    </timestep>
    <timestep time="9.50">
        <vehicle id="background.0" x="32.28" y="-1.60" angle="90.00" type="human" speed="13.44" pos="32.28" lane="e0_0" slope="0.00"/>
    </timestep>
    <timestep time="10.00">
        <vehicle id="background.0" x="39.17" y="-1.60" angle="90.00" type="human" speed="13.79" pos="39.17" lane="e0_0" slope="0.00"/>
    </timestep>
    <timestep time="10.50">
        <vehicle id="background.0" x="46.10" y="-1.60" angle="90.00" type="human" speed="13.86" pos="46.10" lane="e0_0" slope="0.00"/>
    </timestep>
    <timestep time="11.00">
        <vehicle id="background.0" x="52.86" y="-1.60" angle="90.00" type="human" speed="13.51" pos="52.86" lane="e0_0" slope="0.00"/>
    </timestep>
    <timestep time="11.50">
        <vehicle id="background.0" x="59.56" y="-1.60" angle="90.00" type="human" speed="13.40" pos="59.56" lane="e0_0" slope="0.00"/>
    </timestep>
    <timestep time="12.00">
        <vehicle id="background.0" x="66.35" y="-1.60" angle="90.00" type="human" speed="13.57" pos="66.35" lane="e0_0" slope="0.00"/>
    </timestep>
    <timestep time="12.50">
        <vehicle id="background.0" x="73.26" y="-1.60" angle="90.00" type="human" speed="13.83" pos="73.26" lane="e0_0" slope="0.00"/>
    </timestep>
    <timestep time="13.00">
        <vehicle id="background.0" x="80.19" y="-1.60" angle="90.00" type="human" speed="13.86" pos="80.19" lane="e0_0" slope="0.00"/>
    </timestep>
    <timestep time="13.50">
        <vehicle id="background.0" x="87.05" y="-1.60" angle="90.00" type="human" speed="13.71" pos="87.05" lane="e0_0" slope="0.00"/>
    </timestep>
    <timestep time="14.00">
        <vehicle id="background.0" x="93.98" y="-1.60" angle="90.00" type="human" speed="13.87" pos="93.98" lane="e0_0" slope="0.00"/>
    </timestep>
    <timestep time="14.50">
        <vehicle id="background.0" x="100.86" y="-1.60" angle="90.00" type="human" speed="13.75" pos="100.86" lane="e0_0" slope="0.00"/>
    </timestep>
    <timestep time="15.00">
        <vehicle id="background.0" x="107.70" y="-1.60" angle="90.00" type="human" speed="13.68" pos="107.70" lane="e0_0" slope="0.00"/>
    </timestep>
    <timestep time="15.50">
        <vehicle id="background.0" x="114.54" y="-1.60" angle="90.00" type="human" speed="13.69" pos="114.54" lane="e0_0" slope="0.00"/>
    </timestep>
    <timestep time="16.00">
        <vehicle id="background.0" x="121.24" y="-1.60" angle="90.00" type="human" speed="13.40" pos="121.24" lane="e0_0" slope="0.00"/>
    </timestep>
    <timestep time="16.50">
        <vehicle id="background.0" x="128.14" y="-1.60" angle="90.00" type="human" speed="13.79" pos="128.14" lane="e0_0" slope="0.00"/>
    </timestep>
    <timestep time="17.00">
        <vehicle id="background.0" x="135.06" y="-1.60" angle="90.00" type="human" speed="13.84" pos="135.06" lane="e0_0" slope="0.00"/>
    </timestep>
    <timestep time="17.50">
        <vehicle id="background.0" x="141.94" y="-1.60" angle="90.00" type="human" speed="13.76" pos="141.94" lane="e0_0" slope="0.00"/>
    </timestep>
    <timestep time="18.00">
        <vehicle id="background.0" x="148.85" y="-1.60" angle="90.00" type="human" speed="13.83" pos="148.85" lane="e0_0" slope="0.00"/>
    </timestep>
    <timestep time="18.50">
        <vehicle id="background.0" x="155.56" y="-1.60" angle="90.00" type="human" speed="13.41" pos="155.56" lane="e0_0" slope="0.00"/>
    </timestep>
    <timestep time="19.00">
        <vehicle id="background.0" x="162.37" y="-1.60" angle="90.00" type="human" speed="13.62" pos="162.37" lane="e0_0" slope="0.00"/>
    </timestep>
    <timestep time="19.50">
        <vehicle id="background.0" x="169.19" y="-1.60" angle="90.00" type="human" speed="13.65" pos="169.19" lane="e0_0" slope="0.00"/>
    </timestep>
    <timestep time="20.00">
        <vehicle id="background.0" x="175.94" y="-1.60" angle="90.00" type="human" speed="13.49" pos="175.94" lane="e0_0" slope="0.00"/>
    </timestep>
    <timestep time="20.50">
        <vehicle id="background.0" x="182.75" y="-1.60" angle="90.00" type="human" speed="13.61" pos="182.75" lane="e0_0" slope="0.00"/>
    </timestep>
    <timestep time="21.00">
        <vehicle id="background.0" x="189.59" y="-1.60" angle="90.00" type="human" speed="13.70" pos="189.59" lane="e0_0" slope="0.00"/>
    </timestep>
    <timestep time="21.50">
        <vehicle id="background.0" x="196.50" y="-1.60" angle="90.00" type="human" speed="13.81" pos="196.50" lane="e0_0" slope="0.00"/>
    </timestep>
    <timestep time="22.00">
        <vehicle id="background.0" x="203.36" y="-1.60" angle="90.00" type="human" speed="13.73" pos="203.36" lane="e0_0" slope="0.00"/>
    </timestep>
    <timestep time="22.50">
        <vehicle id="background.0" x="210.22" y="-1.60" angle="90.00" type="human" speed="13.71" pos="210.22" lane="e0_0" slope="0.00"/>
    </timestep>
    <timestep time="23.00">
        <vehicle id="background.0" x="217.16" y="-1.60" angle="90.00" type="human" speed="13.87" pos="217.16" lane="e0_0" slope="0.00"/>
    </timestep>
    <timestep time="23.50">
        <vehicle id="background.0" x="223.88" y="-1.60" angle="90.00" type="human" speed="13.45" pos="223.88" lane="e0_0" slope="0.00"/>
    </timestep>
    <timestep time="24.00">
        <vehicle id="background.0" x="230.74" y="-1.60" angle="90.00" type="human" speed="13.72" pos="230.74" lane="e0_0" slope="0.00"/>
    </timestep>
    <timestep time="24.50">
        <vehicle id="background.0" x="237.57" y="-1.60" angle="90.00" type="human" speed="13.65" pos="237.57" lane="e0_0" slope="0.00"/>
    </timestep>
    <timestep time="25.00">
        <vehicle id="background.0" x="244.38" y="-1.60" angle="90.00" type="human" speed="13.62" pos="244.38" lane="e0_0" slope="0.00"/>
    </timestep>
    <timestep time="25.50">
        <vehicle id="background.0" x="251.13" y="-1.60" angle="90.00" type="human" speed="13.51" pos="251.13" lane="e0_0" slope="0.00"/>
    </timestep>
    <timestep time="26.00">
        <vehicle id="background.0" x="257.94" y="-1.60" angle="90.00" type="human" speed="13.61" pos="257.94" lane="e0_0" slope="0.00"/>
    </timestep>
    <timestep time="26.50">
        <vehicle id="background.0" x="264.73" y="-1.60" angle="90.00" type="human" speed="13.59" pos="264.73" lane="e0_0" slope="0.00"/>
    </timestep>
    <timestep time="27.00">
        <vehicle id="background.0" x="271.50" y="-1.60" angle="90.00" type="human" speed="13.53" pos="271.50" lane="e0_0" slope="0.00"/>
    </timestep>
    <timestep time="27.50">
        <vehicle id="background.0" x="278.28" y="-1.60" angle="90.00" type="human" speed="13.57" pos="278.28" lane="e0_0" slope="0.00"/>
    </timestep>
    <timestep time="28.00">
        <vehicle id="background.0" x="285.09" y="-1.60" angle="90.00" type="human" speed="13.61" pos="285.09" lane="e0_0" slope="0.00"/>
        <vehicle id="background.1" x="5.10" y="-1.60" angle="90.00" type="human" speed="13.38" pos="5.10" lane="e0_0" slope="0.00"/>
    </timestep>
    <timestep time="28.50">
        <vehicle id="background.0" x="292.02" y="-1.60" angle="90.00" type="human" speed="13.87" pos="292.02" lane="e0_0" slope="0.00"/>
        <vehicle id="background.1" x="11.64" y="-1.60" angle="90.00" type="human" speed="13.08" pos="11.64" lane="e0_0" slope="0.00"/>
    </timestep>
    <timestep time="29.00">
        <vehicle id="background.0" x="298.80" y="-1.60" angle="90.00" type="human" speed="13.55" pos="298.80" lane="e0_0" slope="0.00"/>
        <vehicle id="background.1" x="18.14" y="-1.60" angle="90.00" type="human" speed="12.99" pos="18.14" lane="e0_0" slope="0.00"/>
    </timestep>
    <timestep time="29.50">
        <vehicle id="background.0" x="305.44" y="-1.60" angle="90.00" type="human" speed="13.49" pos="5.44" lane="e1_0" slope="0.00"/>
        <vehicle id="background.1" x="24.61" y="-1.60" angle="90.00" type="human" speed="12.95" pos="24.61" lane="e0_0" slope="0.00"/>
    </timestep>
    <timestep time="30.00">
        <vehicle id="background.0" x="312.22" y="-1.60" angle="90.00" type="human" speed="13.55" pos="12.22" lane="e1_0" slope="0.00"/>
        <vehicle id="background.1" x="31.20" y="-1.60" angle="90.00" type="human" speed="13.18" pos="31.20" lane="e0_0" slope="0.00"/>
    </timestep>
    <timestep time="30.50">
        <vehicle id="background.0" x="319.07" y="-1.60" angle="90.00" type="human" speed="13.71" pos="19.07" lane="e1_0" slope="0.00"/>
        <vehicle id="background.1" x="37.69" y="-1.60" angle="90.00" type="human" speed="12.98" pos="37.69" lane="e0_0" slope="0.00"/>
    </timestep>
    <timestep time="31.00">
        <vehicle id="background.0" x="325.89" y="-1.60" angle="90.00" type="human" speed="13.63" pos="25.89" lane="e1_0" slope="0.00"/>
        <vehicle id="background.1" x="44.34" y="-1.60" angle="90.00" type="human" speed="13.28" pos="44.34" lane="e0_0" slope="0.00"/>
    </timestep>
    <timestep time="31.50">
        <vehicle id="background.0" x="332.59" y="-1.60" angle="90.00" type="human" speed="13.39" pos="32.59" lane="e1_0" slope="0.00"/>
        <vehicle id="background.1" x="50.96" y="-1.60" angle="90.00" type="human" speed="13.25" pos="50.96" lane="e0_0" slope="0.00"/>
    </timestep>
    <timestep time="32.00">
        <vehicle id="background.0" x="339.37" y="-1.60" angle="90.00" type="human" speed="13.58" pos="39.37" lane="e1_0" slope="0.00"/>
        <vehicle id="background.1" x="57.62" y="-1.60" angle="90.00" type="human" speed="13.31" pos="57.62" lane="e0_0" slope="0.00"/>
    </timestep>
    <timestep time="32.50">
        <vehicle id="background.0" x="346.18" y="-1.60" angle="90.00" type="human" speed="13.61" pos="46.18" lane="e1_0" slope="0.00"/>
        <vehicle id="background.1" x="64.16" y="-1.60" angle="90.00" type="human" speed="13.09" pos="64.16" lane="e0_0" slope="0.00"/>
    </timestep>
    <timestep time="33.00">
        <vehicle id="background.1" x="70.61" y="-1.60" angle="90.00" type="human" speed="12.89" pos="70.61" lane="e0_0" slope="0.00"/>
    </timestep>
    <timestep time="33.50">
        <vehicle id="background.1" x="77.27" y="-1.60" angle="90.00" type="human" speed="13.32" pos="77.27" lane="e0_0" slope="0.00"/>
    </timestep>
    <timestep time="34.00">
        <vehicle id="background.1" x="83.72" y="-1.60" angle="90.00" type="human" speed="12.91" pos="83.72" lane="e0_0" slope="0.00"/>
    </timestep>
    <timestep time="34.50">
        <vehicle id="background.1" x="90.27" y="-1.60" angle="90.00" type="human" speed="13.10" pos="90.27" lane="e0_0" slope="0.00"/>
    </timestep>
    <timestep time="35.00">
        <vehicle id="background.1" x="96.76" y="-1.60" angle="90.00" type="human" speed="12.98" pos="96.76" lane="e0_0" slope="0.00"/>
    </timestep>
    <timestep time="35.50">
        <vehicle id="background.1" x="103.44" y="-1.60" angle="90.00" type="human" speed="13.36" pos="103.44" lane="e0_0" slope="0.00"/>
    </timestep>
    <timestep time="36.00">
        <vehicle id="background.1" x="109.90" y="-1.60" angle="90.00" type="human" speed="12.91" pos="109.90" lane="e0_0" slope="0.00"/>
    </timestep>
    <timestep time="36.50">
        <vehicle id="background.1" x="116.39" y="-1.60" angle="90.00" type="human" speed="12.98" pos="116.39" lane="e0_0" slope="0.00"/>
    </timestep>
    <timestep time="37.00">
        <vehicle id="background.1" x="123.02" y="-1.60" angle="90.00" type="human" speed="13.26" pos="123.02" lane="e0_0" slope="0.00"/>
    </timestep>
    <timestep time="37.50">
        <vehicle id="background.1" x="129.64" y="-1.60" angle="90.00" type="human" speed="13.24" pos="129.64" lane="e0_0" slope="0.00"/>
    </timestep>
    <timestep time="38.00">
        <vehicle id="background.1" x="136.13" y="-1.60" angle="90.00" type="human" speed="12.98" pos="136.13" lane="e0_0" slope="0.00"/>
    </timestep>
    <timestep time="38.50">
        <vehicle id="background.1" x="142.59" y="-1.60" angle="90.00" type="human" speed="12.91" pos="142.59" lane="e0_0" slope="0.00"/>
    </timestep>
    <timestep time="39.00">
        <vehicle id="background.1" x="149.16" y="-1.60" angle="90.00" type="human" speed="13.14" pos="149.16" lane="e0_0" slope="0.00"/>
    </timestep>
    <timestep time="39.50">
        <vehicle id="background.1" x="155.64" y="-1.60" angle="90.00" type="human" speed="12.97" pos="155.64" lane="e0_0" slope="0.00"/>
    </timestep>
    <timestep time="40.00">
        <vehicle id="background.1" x="162.17" y="-1.60" angle="90.00" type="human" speed="13.05" pos="162.17" lane="e0_0" slope="0.00"/>
    </timestep>
    <timestep time="40.50">
        <vehicle id="background.1" x="168.85" y="-1.60" angle="90.00" type="human" speed="13.36" pos="168.85" lane="e0_0" slope="0.00"/>
    </timestep>
    <timestep time="41.00">
        <vehicle id="background.1" x="175.36" y="-1.60" angle="90.00" type="human" speed="13.02" pos="175.36" lane="e0_0" slope="0.00"/>
    </timestep>
    <timestep time="41.50">
        <vehicle id="background.1" x="181.95" y="-1.60" angle="90.00" type="human" speed="13.19" pos="181.95" lane="e0_0" slope="0.00"/>
    </timestep>
    <timestep time="42.00">
        <vehicle id="background.1" x="188.59" y="-1.60" angle="90.00" type="human" speed="13.27" pos="188.59" lane="e0_0" slope="0.00"/>
    </timestep>
    <timestep time="42.50">
        <vehicle id="background.1" x="195.20" y="-1.60" angle="90.00" type="human" speed="13.23" pos="195.20" lane="e0_0" slope="0.00"/>
    </timestep>
    <timestep time="43.00">
        <vehicle id="background.1" x="201.71" y="-1.60" angle="90.00" type="human" speed="13.01" pos="201.71" lane="e0_0" slope="0.00"/>
    </timestep>
    <timestep time="43.50">
        <vehicle id="background.1" x="208.21" y="-1.60" angle="90.00" type="human" speed="13.00" pos="208.21" lane="e0_0" slope="0.00"/>
    </timestep>
    <timestep time="44.00">
        <vehicle id="background.1" x="214.81" y="-1.60" angle="90.00" type="human" speed="13.21" pos="214.81" lane="e0_0" slope="0.00"/>
    </timestep>
    <timestep time="44.50">
        <vehicle id="background.1" x="221.49" y="-1.60" angle="90.00" type="human" speed="13.34" pos="221.49" lane="e0_0" slope="0.00"/>
    </timestep>
    <timestep time="45.00">
        <vehicle id="background.1" x="228.15" y="-1.60" angle="90.00" type="human" speed="13.33" pos="228.15" lane="e0_0" slope="0.00"/>
    </timestep>
    <timestep time="45.50">
        <vehicle id="background.1" x="234.72" y="-1.60" angle="90.00" type="human" speed="13.13" pos="234.72" lane="e0_0" slope="0.00"/>
    </timestep>
    <timestep time="46.00">
        <vehicle id="background.1" x="241.40" y="-1.60" angle="90.00" type="human" speed="13.35" pos="241.40" lane="e0_0" slope="0.00"/>
    </timestep>
    <timestep time="46.50">
        <vehicle id="background.1" x="247.98" y="-1.60" angle="90.00" type="human" speed="13.18" pos="247.98" lane="e0_0" slope="0.00"/>
    </timestep>
    <timestep time="47.00">
        <vehicle id="background.1" x="254.58" y="-1.60" angle="90.00" type="human" speed="13.19" pos="254.58" lane="e0_0" slope="0.00"/>
    </timestep>
    <timestep time="47.50">
        <vehicle id="background.1" x="261.09" y="-1.60" angle="90.00" type="human" speed="13.02" pos="261.09" lane="e0_0" slope="0.00"/>
    </timestep>
    <timestep time="48.00">
        <vehicle id="background.1" x="267.61" y="-1.60" angle="90.00" type="human" speed="13.04" pos="267.61" lane="e0_0" slope="0.00"/>
    </timestep>
    <timestep time="48.50">
        <vehicle id="background.1" x="274.14" y="-1.60" angle="90.00" type="human" speed="13.06" pos="274.14" lane="e0_0" slope="0.00"/>
    </timestep>
    <timestep time="49.00">
        <vehicle id="background.1" x="280.59" y="-1.60" angle="90.00" type="human" speed="12.91" pos="280.59" lane="e0_0" slope="0.00"/>
    </timestep>
    <timestep time="49.50">
        <vehicle id="background.1" x="286.39" y="-1.60" angle="90.00" type="human" speed="11.59" pos="286.39" lane="e0_0" slope="0.00"/>
    </timestep>
    <timestep time="50.00">
        <vehicle id="background.1" x="291.06" y="-1.60" angle="90.00" type="human" speed="9.34" pos="291.06" lane="e0_0" slope="0.00"/>
    </timestep>
    <timestep time="50.50">
        <vehicle id="background.1" x="294.65" y="-1.60" angle="90.00" type="human" speed="7.17" pos="294.65" lane="e0_0" slope="0.00"/>
    </timestep>
    <timestep time="51.00">
        <vehicle id="background.1" x="297.11" y="-1.60" angle="90.00" type="human" speed="4.92" pos="297.11" lane="e0_0" slope="0.00"/>
    </timestep>
    <timestep time="51.50">
        <vehicle id="background.1" x="298.55" y="-1.60" angle="90.00" type="human" speed="2.89" pos="298.55" lane="e0_0" slope="0.00"/>
    </timestep>
    <timestep time="52.00">
        <vehicle id="background.1" x="298.91" y="-1.60" angle="90.00" type="human" speed="0.71" pos="298.91" lane="e0_0" slope="0.00"/>
    </timestep>
    <timestep time="52.50">
        <vehicle id="background.1" x="298.99" y="-1.60" angle="90.00" type="human" speed="0.15" pos="298.99" lane="e0_0" slope="0.00"/>
    </timestep>
    <timestep time="53.00">
        <vehicle id="background.1" x="299.00" y="-1.60" angle="90.00" type="human" speed="0.02" pos="299.00" lane="e0_0" slope="0.00"/>
    </timestep>
    <timestep time="53.50">
        <vehicle id="background.1" x="299.00" y="-1.60" angle="90.00" type="human" speed="0.00" pos="299.00" lane="e0_0" slope="0.00"/>
    </timestep>
    <timestep time="54.00">
        <vehicle id="background.1" x="299.00" y="-1.60" angle="90.00" type="human" speed="0.00" pos="299.00" lane="e0_0" slope="0.00"/>
    </timestep>
    <timestep time="54.50">
        <vehicle id="background.1" x="299.00" y="-1.60" angle="90.00" type="human" speed="0.00" pos="299.00" lane="e0_0" slope="0.00"/>
        <vehicle id="background.2" x="5.10" y="-1.60" angle="90.00" type="human" speed="13.89" pos="5.10" lane="e0_0" slope="0.00"/>
    </timestep>
    <timestep time="55.00">
        <vehicle id="background.1" x="299.00" y="-1.60" angle="90.00" type="human" speed="0.00" pos="299.00" lane="e0_0" slope="0.00"/>
        <vehicle id="background.2" x="12.01" y="-1.60" angle="90.00" type="human" speed="13.83" pos="12.01" lane="e0_0" slope="0.00"/>
    </timestep>
    <timestep time="55.50">
        <vehicle id="background.1" x="299.00" y="-1.60" angle="90.00" type="human" speed="0.00" pos="299.00" lane="e0_0" slope="0.00"/>
        <vehicle id="background.2" x="18.83" y="-1.60" angle="90.00" type="human" speed="13.63" pos="18.83" lane="e0_0" slope="0.00"/>
    </timestep>
    <timestep time="56.00">
        <vehicle id="background.1" x="299.00" y="-1.60" angle="90.00" type="human" speed="0.00" pos="299.00" lane="e0_0" slope="0.00"/>
        <vehicle id="background.2" x="25.75" y="-1.60" angle="90.00" type="human" speed="13.84" pos="25.75" lane="e0_0" slope="0.00"/>
    </timestep>
    <timestep time="56.50">
        <vehicle id="background.1" x="299.00" y="-1.60" angle="90.00" type="human" speed="0.00" pos="299.00" lane="e0_0" slope="0.00"/>
        <vehicle id="background.2" x="32.48" y="-1.60" angle="90.00" type="human" speed="13.46" pos="32.48" lane="e0_0" slope="0.00"/>
    </timestep>
    <timestep time="57.00">
        <vehicle id="background.1" x="299.00" y="-1.60" angle="90.00" type="human" speed="0.00" pos="299.00" lane="e0_0" slope="0.00"/>
        <vehicle id="background.2" x="39.40" y="-1.60" angle="90.00" type="human" speed="13.84" pos="39.40" lane="e0_0" slope="0.00"/>
    </timestep>
    <timestep time="57.50">
        <vehicle id="background.1" x="299.00" y="-1.60" angle="90.00" type="human" speed="0.00" pos="299.00" lane="e0_0" slope="0.00"/>
        <vehicle id="background.2" x="46.29" y="-1.60" angle="90.00" type="human" speed="13.77" pos="46.29" lane="e0_0" slope="0.00"/>
    </timestep>
    <timestep time="58.00">
        <vehicle id="background.1" x="299.00" y="-1.60" angle="90.00" type="human" speed="0.00" pos="299.00" lane="e0_0" slope="0.00"/>
        <vehicle id="background.2" x="53.04" y="-1.60" angle="90.00" type="human" speed="13.51" pos="53.04" lane="e0_0" slope="0.00"/>
    </timestep>
    <timestep time="58.50">
        <vehicle id="background.1" x="299.00" y="-1.60" angle="90.00" type="human" speed="0.00" pos="299.00" lane="e0_0" slope="0.00"/>
        <vehicle id="background.2" x="59.85" y="-1.60" angle="90.00" type="human" speed="13.63" pos="59.85" lane="e0_0" slope="0.00"/>
    </timestep>
    <timestep time="59.00">
        <vehicle id="background.1" x="299.00" y="-1.60" angle="90.00" type="human" speed="0.00" pos="299.00" lane="e0_0" slope="0.00"/>
        <vehicle id="background.2" x="66.77" y="-1.60" angle="90.00" type="human" speed="13.83" pos="66.77" lane="e0_0" slope="0.00"/>
    </timestep>
    <timestep time="59.50">
        <vehicle id="background.1" x="299.00" y="-1.60" angle="90.00" type="human" speed="0.00" pos="299.00" lane="e0_0" slope="0.00"/>
        <vehicle id="background.2" x="73.69" y="-1.60" angle="90.00" type="human" speed="13.84" pos="73.69" lane="e0_0" slope="0.00"/>
    </timestep>
    <timestep time="60.00">
        <vehicle id="background.1" x="299.00" y="-1.60" angle="90.00" type="human" speed="0.00" pos="299.00" lane="e0_0" slope="0.00"/>
        <vehicle id="background.2" x="80.48" y="-1.60" angle="90.00" type="human" speed="13.59" pos="80.48" lane="e0_0" slope="0.00"/>
    </timestep>
    <timestep time="60.50">
        <vehicle id="background.1" x="299.00" y="-1.60" angle="90.00" type="human" speed="0.00" pos="299.00" lane="e0_0" slope="0.00"/>
        <vehicle id="background.2" x="87.28" y="-1.60" angle="90.00" type="human" speed="13.59" pos="87.28" lane="e0_0" slope="0.00"/>
    </timestep>
    <timestep time="61.00">
        <vehicle id="background.1" x="299.00" y="-1.60" angle="90.00" type="human" speed="0.00" pos="299.00" lane="e0_0" slope="0.00"/>
        <vehicle id="background.2" x="94.15" y="-1.60" angle="90.00" type="human" speed="13.74" pos="94.15" lane="e0_0" slope="0.00"/>
    </timestep>
    <timestep time="61.50">
        <vehicle id="background.1" x="299.00" y="-1.60" angle="90.00" type="human" speed="0.00" pos="299.00" lane="e0_0" slope="0.00"/>
        <vehicle id="background.2" x="100.90" y="-1.60" angle="90.00" type="human" speed="13.51" pos="100.90" lane="e0_0" slope="0.00"/>
    </timestep>
    <timestep time="62.00">
        <vehicle id="background.1" x="299.00" y="-1.60" angle="90.00" type="human" speed="0.00" pos="299.00" lane="e0_0" slope="0.00"/>
        <vehicle id="background.2" x="107.62" y="-1.60" angle="90.00" type="human" speed="13.44" pos="107.62" lane="e0_0" slope="0.00"/>
    </timestep>
    <timestep time="62.50">
        <vehicle id="background.1" x="299.00" y="-1.60" angle="90.00" type="human" speed="0.00" pos="299.00" lane="e0_0" slope="0.00"/>
        <vehicle id="background.2" x="114.43" y="-1.60" angle="90.00" type="human" speed="13.63" pos="114.43" lane="e0_0" slope="0.00"/>
    </timestep>
    <timestep time="63.00">
        <vehicle id="background.1" x="299.00" y="-1.60" angle="90.00" type="human" speed="0.00" pos="299.00" lane="e0_0" slope="0.00"/>
        <vehicle id="background.2" x="121.20" y="-1.60" angle="90.00" type="human" speed="13.53" pos="121.20" lane="e0_0" slope="0.00"/>
    </timestep>
    <timestep time="63.50">
        <vehicle id="background.1" x="299.00" y="-1.60" angle="90.00" type="human" speed="0.00" pos="299.00" lane="e0_0" slope="0.00"/>
        <vehicle id="background.2" x="128.14" y="-1.60" angle="90.00" type="human" speed="13.89" pos="128.14" lane="e0_0" slope="0.00"/>
    </timestep>
    <timestep time="64.00">
        <vehicle id="background.1" x="299.00" y="-1.60" angle="90.00" type="human" speed="0.00" pos="299.00" lane="e0_0" slope="0.00"/>
        <vehicle id="background.2" x="135.01" y="-1.60" angle="90.00" type="human" speed="13.73" pos="135.01" lane="e0_0" slope="0.00"/>
    </timestep>
    <timestep time="64.50">
        <vehicle id="background.1" x="299.00" y="-1.60" angle="90.00" type="human" speed="0.00" pos="299.00" lane="e0_0" slope="0.00"/>
        <vehicle id="background.2" x="141.95" y="-1.60" angle="90.00" type="human" speed="13.89" pos="141.95" lane="e0_0" slope="0.00"/>
    </timestep>
    <timestep time="65.00">
        <vehicle id="background.1" x="299.00" y="-1.60" angle="90.00" type="human" speed="0.00" pos="299.00" lane="e0_0" slope="0.00"/>
        <vehicle id="background.2" x="148.87" y="-1.60" angle="90.00" type="human" speed="13.84" pos="148.87" lane="e0_0" slope="0.00"/>
    </timestep>
    <timestep time="65.50">
        <vehicle id="background.1" x="299.00" y="-1.60" angle="90.00" type="human" speed="0.00" pos="299.00" lane="e0_0" slope="0.00"/>
        <vehicle id="background.2" x="155.77" y="-1.60" angle="90.00" type="human" speed="13.80" pos="155.77" lane="e0_0" slope="0.00"/>
    </timestep>
    <timestep time="66.00">
        <vehicle id="background.1" x="299.00" y="-1.60" angle="90.00" type="human" speed="0.00" pos="299.00" lane="e0_0" slope="0.00"/>
        <vehicle id="background.2" x="162.68" y="-1.60" angle="90.00" type="human" speed="13.82" pos="162.68" lane="e0_0" slope="0.00"/>
    </timestep>
    <timestep time="66.50">
        <vehicle id="background.1" x="299.00" y="-1.60" angle="90.00" type="human" speed="0.00" pos="299.00" lane="e0_0" slope="0.00"/>
        <vehicle id="background.2" x="169.45" y="-1.60" angle="90.00" type="human" speed="13.54" pos="169.45" lane="e0_0" slope="0.00"/>
    </timestep>
    <timestep time="67.00">
        <vehicle id="background.1" x="299.00" y="-1.60" angle="90.00" type="human" speed="0.00" pos="299.00" lane="e0_0" slope="0.00"/>
        <vehicle id="background.2" x="176.36" y="-1.60" angle="90.00" type="human" speed="13.82" pos="176.36" lane="e0_0" slope="0.00"/>
    </timestep>
    <timestep time="67.50">
        <vehicle id="background.1" x="299.00" y="-1.60" angle="90.00" type="human" speed="0.00" pos="299.00" lane="e0_0" slope="0.00"/>
        <vehicle id="background.2" x="183.28" y="-1.60" angle="90.00" type="human" speed="13.84" pos="183.28" lane="e0_0" slope="0.00"/>
    </timestep>
    <timestep time="68.00">
        <vehicle id="background.1" x="299.00" y="-1.60" angle="90.00" type="human" speed="0.00" pos="299.00" lane="e0_0" slope="0.00"/>
        <vehicle id="background.2" x="190.00" y="-1.60" angle="90.00" type="human" speed="13.43" pos="190.00" lane="e0_0" slope="0.00"/>
    </timestep>
    <timestep time="68.50">
        <vehicle id="background.1" x="299.00" y="-1.60" angle="90.00" type="human" speed="0.00" pos="299.00" lane="e0_0" slope="0.00"/>
        <vehicle id="background.2" x="196.83" y="-1.60" angle="90.00" type="human" speed="13.66" pos="196.83" lane="e0_0" slope="0.00"/>
    </timestep>
    <timestep time="69.00">
        <vehicle id="background.1" x="299.00" y="-1.60" angle="90.00" type="human" speed="0.00" pos="299.00" lane="e0_0" slope="0.00"/>
        <vehicle id="background.2" x="203.64" y="-1.60" angle="90.00" type="human" speed="13.62" pos="203.64" lane="e0_0" slope="0.00"/>
    </timestep>
    <timestep time="69.50">
        <vehicle id="background.1" x="299.00" y="-1.60" angle="90.00" type="human" speed="0.00" pos="299.00" lane="e0_0" slope="0.00"/>
        <vehicle id="background.2" x="210.34" y="-1.60" angle="90.00" type="human" speed="13.39" pos="210.34" lane="e0_0" slope="0.00"/>
    </timestep>
    <timestep time="70.00">
        <vehicle id="background.1" x="299.00" y="-1.60" angle="90.00" type="human" speed="0.00" pos="299.00" lane="e0_0" slope="0.00"/>
        <vehicle id="background.2" x="217.24" y="-1.60" angle="90.00" type="human" speed="13.82" pos="217.24" lane="e0_0" slope="0.00"/>
    </timestep>
    <timestep time="70.50">