<?xml version="1.0" encoding="UTF-8"?>

<!-- generated on 2026-05-14 17:04:38 by Eclipse SUMO sumo Version 1.24.0
<sumoConfiguration xmlns:xsi="http://www.w3.org/2001/XMLSchema-instance" xsi:noNamespaceSchemaLocation="http://sumo.dlr.de/xsd/sumoConfiguration.xsd">

    <input>
        <net-file value="scenarios/simple_arterial/simple_arterial.net.xml"/>
        <route-files value="scenarios/simple_arterial/simple_arterial.rou.xml"/>
        <additional-files value="scenarios/simple_arterial/simple_arterial.tls.xml"/>
    </input>

    <output>
        <fcd-output value="runs/fcd_expert_default/episode_00044_seed_86.fcd.xml"/>
    </output>

    <time>
        <begin value="0"/>
        <end value="900"/>
        <step-length value="0.5"/>
    </time>

    <report>
        <no-warnings value="true"/>
    </report>

    <traci_server>
        <remote-port value="24542"/>
    </traci_server>

    <random_number>
        <seed value="86"/>
    </random_number>

</sumoConfiguration>
-->

<fcd-export xmlns:xsi="http://www.w3.org/2001/XMLSchema-instance" xsi:noNamespaceSchemaLocation="http://sumo.dlr.de/xsd/fcd_file.xsd">
    <timestep time="0.00"/>
    <timestep time="0.50"/>
    <timestep time="1.00"/>
    <timestep time="1.50"/>
    <timestep time="2.00"/>
    <timestep time="2.50"/>
    <timestep time="3.00"/>
    <timestep time="3.50"/>
    <timestep time="4.00"/>
    <timestep time="4.50"/>
    <timestep time="5.00"/>
    <timestep time="5.50"/>
    <timestep time="6.00"/>
    <timestep time="6.50"/>
    <timestep time="7.00"/>
    <timestep time="7.50"/>
    <timestep time="8.00"/>
    <timestep time="8.50"/>
    <timestep time="9.00"/>
    <timestep time="9.50"/>
    <timestep time="10.00"/>
    <timestep time="10.50"/>
    <timestep time="11.00"/>
    <timestep time="11.50"/>
    <timestep time="12.00"/>
    <timestep time="12.50"/>
    <timestep time="13.00"/>
    <timestep time="13.50"/>
    <timestep time="14.00"/>
    <timestep time="14.50"/>
    <timestep time="15.00"/>
    <timestep time="15.50"/>
    <timestep time="16.00"/>
    <timestep time="16.50"/>
    <timestep time="17.00"/>
    <timestep time="17.50"/>
    <timestep time="18.00"/>
    <timestep time="18.50"/>
    <timestep time="19.00"/>
    <timestep time="19.50"/>
    <timestep time="20.00"/>
    <timestep time="20.50"/>
    <timestep time="21.00"/>
    <timestep time="21.50"/>
    <timestep time="22.00"/>
    <timestep time="22.50"/>
    <timestep time="23.00"/>
    <timestep time="23.50"/>
    <timestep time="24.00"/>
    <timestep time="24.50"/>
    <timestep time="25.00"/>
    <timestep time="25.50"/>
    <timestep time="26.00"/>
    <timestep time="26.50"/>
    <timestep time="27.00"/>
    <timestep time="27.50"/>
    <timestep time="28.00"/>
    <timestep time="28.50"/>
    <timestep time="29.00"/>
    <timestep time="29.50"/>
    <timestep time="30.00"/>
    <timestep time="30.50"/>
    <timestep time="31.00"/>
    <timestep time="31.50"/>
    <timestep time="32.00"/>
    <timestep time="32.50"/>
    <timestep time="33.00"/>
    <timestep time="33.50"/>
    <timestep time="34.00"/>
    <timestep time="34.50">
        <vehicle id="background.0" x="5.10" y="-1.60" angle="90.00" type="human" speed="13.89" pos="5.10" lane="e0_0" slope="0.00"/>
    </timestep>
    <timestep time="35.00">
        <vehicle id="background.0" x="11.88" y="-1.60" angle="90.00" type="human" speed="13.56" pos="11.88" lane="e0_0" slope="0.00"/>
    </timestep>
    <timestep time="35.50">
        <vehicle id="background.0" x="18.60" y="-1.60" angle="90.00" type="human" speed="13.44" pos="18.60" lane="e0_0" slope="0.00"/>
    </timestep>
    <timestep time="36.00">
        <vehicle id="background.0" x="25.30" y="-1.60" angle="90.00" type="human" speed="13.41" pos="25.30" lane="e0_0" slope="0.00"/>
    </timestep>
    <timestep time="36.50">
        <vehicle id="background.0" x="32.18" y="-1.60" angle="90.00" type="human" speed="13.75" pos="32.18" lane="e0_0" slope="0.00"/>
    </timestep>
    <timestep time="37.00">
        <vehicle id="background.0" x="38.88" y="-1.60" angle="90.00" type="human" speed="13.40" pos="38.88" lane="e0_0" slope="0.00"/>
    </timestep>
    <timestep time="37.50">
        <vehicle id="background.0" x="45.68" y="-1.60" angle="90.00" type="human" speed="13.60" pos="45.68" lane="e0_0" slope="0.00"/>
    </timestep>
    <timestep time="38.00">
        <vehicle id="background.0" x="52.60" y="-1.60" angle="90.00" type="human" speed="13.84" pos="52.60" lane="e0_0" slope="0.00"/>
    </timestep>
    <timestep time="38.50">
        <vehicle id="background.0" x="59.41" y="-1.60" angle="90.00" type="human" speed="13.61" pos="59.41" lane="e0_0" slope="0.00"/>
    </timestep>
    <timestep time="39.00">
        <vehicle id="background.0" x="66.29" y="-1.60" angle="90.00" type="human" speed="13.77" pos="66.29" lane="e0_0" slope="0.00"/>
    </timestep>
    <timestep time="39.50">
        <vehicle id="background.0" x="73.08" y="-1.60" angle="90.00" type="human" speed="13.58" pos="73.08" lane="e0_0" slope="0.00"/>
    </timestep>
    <timestep time="40.00">
        <vehicle id="background.0" x="79.81" y="-1.60" angle="90.00" type="human" speed="13.46" pos="79.81" lane="e0_0" slope="0.00"/>
    </timestep>
    <timestep time="40.50">
        <vehicle id="background.0" x="86.52" y="-1.60" angle="90.00" type="human" speed="13.43" pos="86.52" lane="e0_0" slope="0.00"/>
    </timestep>
    <timestep time="41.00">
        <vehicle id="background.0" x="93.33" y="-1.60" angle="90.00" type="human" speed="13.62" pos="93.33" lane="e0_0" slope="0.00"/>
    </timestep>
    <timestep time="41.50">
        <vehicle id="background.0" x="100.26" y="-1.60" angle="90.00" type="human" speed="13.87" pos="100.26" lane="e0_0" slope="0.00"/>
    </timestep>
    <timestep time="42.00">
        <vehicle id="background.0" x="107.03" y="-1.60" angle="90.00" type="human" speed="13.53" pos="107.03" lane="e0_0" slope="0.00"/>
    </timestep>
    <timestep time="42.50">
        <vehicle id="background.0" x="113.79" y="-1.60" angle="90.00" type="human" speed="13.52" pos="113.79" lane="e0_0" slope="0.00"/>
    </timestep>
    <timestep time="43.00">
        <vehicle id="background.0" x="120.50" y="-1.60" angle="90.00" type="human" speed="13.43" pos="120.50" lane="e0_0" slope="0.00"/>
    </timestep>
    <timestep time="43.50">
        <vehicle id="background.0" x="127.34" y="-1.60" angle="90.00" type="human" speed="13.67" pos="127.34" lane="e0_0" slope="0.00"/>
    </timestep>
    <timestep time="44.00">
        <vehicle id="background.0" x="134.13" y="-1.60" angle="90.00" type="human" speed="13.58" pos="134.13" lane="e0_0" slope="0.00"/>
    </timestep>
    <timestep time="44.50">
        <vehicle id="background.0" x="141.00" y="-1.60" angle="90.00" type="human" speed="13.75" pos="141.00" lane="e0_0" slope="0.00"/>
    </timestep>
    <timestep time="45.00">
        <vehicle id="background.0" x="147.78" y="-1.60" angle="90.00" type="human" speed="13.56" pos="147.78" lane="e0_0" slope="0.00"/>
    </timestep>
    <timestep time="45.50">
        <vehicle id="background.0" x="154.68" y="-1.60" angle="90.00" type="human" speed="13.79" pos="154.68" lane="e0_0" slope="0.00"/>
    </timestep>
    <timestep time="46.00">
        <vehicle id="background.0" x="161.54" y="-1.60" angle="90.00" type="human" speed="13.72" pos="161.54" lane="e0_0" slope="0.00"/>
    </timestep>
    <timestep time="46.50">
        <vehicle id="background.0" x="168.36" y="-1.60" angle="90.00" type="human" speed="13.63" pos="168.36" lane="e0_0" slope="0.00"/>
    </timestep>
    <timestep time="47.00">
        <vehicle id="background.0" x="175.25" y="-1.60" angle="90.00" type="human" speed="13.80" pos="175.25" lane="e0_0" slope="0.00"/>
    </timestep>
    <timestep time="47.50">
        <vehicle id="background.0" x="182.16" y="-1.60" angle="90.00" type="human" speed="13.82" pos="182.16" lane="e0_0" slope="0.00"/>
    </timestep>
    <timestep time="48.00">
        <vehicle id="background.0" x="189.02" y="-1.60" angle="90.00" type="human" speed="13.71" pos="189.02" lane="e0_0" slope="0.00"/>
    </timestep>
    <timestep time="48.50">
        <vehicle id="background.0" x="195.90" y="-1.60" angle="90.00" type="human" speed="13.77" pos="195.90" lane="e0_0" slope="0.00"/>
    </timestep>
    <timestep time="49.00">
        <vehicle id="background.0" x="202.75" y="-1.60" angle="90.00" type="human" speed="13.69" pos="202.75" lane="e0_0" slope="0.00"/>
    </timestep>
    <timestep time="49.50">
        <vehicle id="background.0" x="209.64" y="-1.60" angle="90.00" type="human" speed="13.78" pos="209.64" lane="e0_0" slope="0.00"/>
    </timestep>
    <timestep time="50.00">
        <vehicle id="background.0" x="216.39" y="-1.60" angle="90.00" type="human" speed="13.51" pos="216.39" lane="e0_0" slope="0.00"/>
    </timestep>
    <timestep time="50.50">
        <vehicle id="background.0" x="223.19" y="-1.60" angle="90.00" type="human" speed="13.59" pos="223.19" lane="e0_0" slope="0.00"/>
    </timestep>
    <timestep time="51.00">
        <vehicle id="background.0" x="230.07" y="-1.60" angle="90.00" type="human" speed="13.76" pos="230.07" lane="e0_0" slope="0.00"/>
    </timestep>
    <timestep time="51.50">
        <vehicle id="background.0" x="236.83" y="-1.60" angle="90.00" type="human" speed="13.52" pos="236.83" lane="e0_0" slope="0.00"/>
    </timestep>
    <timestep time="52.00">
        <vehicle id="background.0" x="243.70" y="-1.60" angle="90.00" type="human" speed="13.76" pos="243.70" lane="e0_0" slope="0.00"/>
    </timestep>
    <timestep time="52.50">
        <vehicle id="background.0" x="250.57" y="-1.60" angle="90.00" type="human" speed="13.73" pos="250.57" lane="e0_0" slope="0.00"/>
    </timestep>
    <timestep time="53.00">
        <vehicle id="background.0" x="257.27" y="-1.60" angle="90.00" type="human" speed="13.40" pos="257.27" lane="e0_0" slope="0.00"/>
    </timestep>
    <timestep time="53.50">
        <vehicle id="background.0" x="264.16" y="-1.60" angle="90.00" type="human" speed="13.78" pos="264.16" lane="e0_0" slope="0.00"/>
    </timestep>
    <timestep time="54.00">
        <vehicle id="background.0" x="271.09" y="-1.60" angle="90.00" type="human" speed="13.86" pos="271.09" lane="e0_0" slope="0.00"/>
    </timestep>
    <timestep time="54.50">
        <vehicle id="background.0" x="277.88" y="-1.60" angle="90.00" type="human" speed="13.58" pos="277.88" lane="e0_0" slope="0.00"/>
    </timestep>
    <timestep time="55.00">
        <vehicle id="background.0" x="284.11" y="-1.60" angle="90.00" type="human" speed="12.45" pos="284.11" lane="e0_0" slope="0.00"/>
    </timestep>
    <timestep time="55.50">
        <vehicle id="background.0" x="289.21" y="-1.60" angle="90.00" type="human" speed="10.20" pos="289.21" lane="e0_0" slope="0.00"/>
        <vehicle id="ego" x="5.10" y="-1.60" angle="90.00" type="ego_type" speed="0.00" pos="5.10" lane="e0_0" slope="0.00"/>
    </timestep>
    <timestep time="56.00">
        <vehicle id="background.0" x="293.26" y="-1.60" angle="90.00" type="human" speed="8.09" pos="293.26" lane="e0_0" slope="0.00"/>
        <vehicle id="ego" x="5.60" y="-1.60" angle="90.00" type="ego_type" speed="1.00" pos="5.60" lane="e0_0" slope="0.00"/>
    </timestep>
    <timestep time="56.50">
        <vehicle id="background.0" x="296.28" y="-1.60" angle="90.00" type="human" speed="6.03" pos="296.28" lane="e0_0" slope="0.00"/>
        <vehicle id="ego" x="6.60" y="-1.60" angle="90.00" type="ego_type" speed="2.00" pos="6.60" lane="e0_0" slope="0.00"/>
    </timestep>
    <timestep time="57.00">
        <vehicle id="background.0" x="298.17" y="-1.60" angle="90.00" type="human" speed="3.78" pos="298.17" lane="e0_0" slope="0.00"/>
        <vehicle id="ego" x="8.10" y="-1.60" angle="90.00" type="ego_type" speed="3.00" pos="8.10" lane="e0_0" slope="0.00"/>
    </timestep>
    <timestep time="57.50">
        <vehicle id="background.0" x="298.93" y="-1.60" angle="90.00" type="human" speed="1.53" pos="298.93" lane="e0_0" slope="0.00"/>
        <vehicle id="ego" x="10.10" y="-1.60" angle="90.00" type="ego_type" speed="4.00" pos="10.10" lane="e0_0" slope="0.00"/>
    </timestep>
    <timestep time="58.00">
        <vehicle id="background.0" x="299.00" y="-1.60" angle="90.00" type="human" speed="0.13" pos="299.00" lane="e0_0" slope="0.00"/>
        <vehicle id="ego" x="12.60" y="-1.60" angle="90.00" type="ego_type" speed="5.00" pos="12.60" lane="e0_0" slope="0.00"/>
    </timestep>
    <timestep time="58.50">
        <vehicle id="background.0" x="299.00" y="-1.60" angle="90.00" type="human" speed="0.00" pos="299.00" lane="e0_0" slope="0.00"/>
        <vehicle id="ego" x="15.60" y="-1.60" angle="90.00" type="ego_type" speed="6.00" pos="15.60" lane="e0_0" slope="0.00"/>
    </timestep>
    <timestep time="59.00">
        <vehicle id="background.0" x="299.00" y="-1.60" angle="90.00" type="human" speed="0.00" pos="299.00" lane="e0_0" slope="0.00"/>
        <vehicle id="ego" x="19.10" y="-1.60" angle="90.00" type="ego_type" speed="7.00" pos="19.10" lane="e0_0" slope="0.00"/>
    </timestep>
    <timestep time="59.50">
        <vehicle id="background.0" x="299.00" y="-1.60" angle="90.00" type="human" speed="0.00" pos="299.00" lane="e0_0" slope="0.00"/>
        <vehicle id="ego" x="23.10" y="-1.60" angle="90.00" type="ego_type" speed="8.00" pos="23.10" lane="e0_0" slope="0.00"/>
    </timestep>
    <timestep time="60.00">
        <vehicle id="background.0" x="299.00" y="-1.60" angle="90.00" type="human" speed="0.00" pos="299.00" lane="e0_0" slope="0.00"/>
        <vehicle id="ego" x="27.60" y="-1.60" angle="90.00" type="ego_type" speed="9.00" pos="27.60" lane="e0_0" slope="0.00"/>
    </timestep>
    <timestep time="60.50">
        <vehicle id="background.0" x="299.00" y="-1.60" angle="90.00" type="human" speed="0.00" pos="299.00" lane="e0_0" slope="0.00"/>
        <vehicle id="ego" x="32.60" y="-1.60" angle="90.00" type="ego_type" speed="10.00" pos="32.60" lane="e0_0" slope="0.00"/>
    </timestep>
    <timestep time="61.00">
        <vehicle id="background.0" x="299.00" y="-1.60" angle="90.00" type="human" speed="0.00" pos="299.00" lane="e0_0" slope="0.00"/>
        <vehicle id="ego" x="38.10" y="-1.60" angle="90.00" type="ego_type" speed="11.00" pos="38.10" lane="e0_0" slope="0.00"/>
    </timestep>
    <timestep time="61.50">
        <vehicle id="background.0" x="299.00" y="-1.60" angle="90.00" type="human" speed="0.00" pos="299.00" lane="e0_0" slope="0.00"/>
        <vehicle id="ego" x="44.10" y="-1.60" angle="90.00" type="ego_type" speed="12.00" pos="44.10" lane="e0_0" slope="0.00"/>
    </timestep>
    <timestep time="62.00">
        <vehicle id="background.0" x="299.00" y="-1.60" angle="90.00" type="human" speed="0.00" pos="299.00" lane="e0_0" slope="0.00"/>
        <vehicle id="ego" x="50.60" y="-1.60" angle="90.00" type="ego_type" speed="13.00" pos="50.60" lane="e0_0" slope="0.00"/>
    </timestep>
    <timestep time="62.50">
        <vehicle id="background.0" x="299.00" y="-1.60" angle="90.00" type="human" speed="0.00" pos="299.00" lane="e0_0" slope="0.00"/>
        <vehicle id="ego" x="57.55" y="-1.60" angle="90.00" type="ego_type" speed="13.89" pos="57.55" lane="e0_0" slope="0.00"/>
    </timestep>
    <timestep time="63.00">
        <vehicle id="background.0" x="299.00" y="-1.60" angle="90.00" type="human" speed="0.00" pos="299.00" lane="e0_0" slope="0.00"/>
        <vehicle id="ego" x="64.49" y="-1.60" angle="90.00" type="ego_type" speed="13.89" pos="64.49" lane="e0_0" slope="0.00"/>
    </timestep>
    <timestep time="63.50">
        <vehicle id="background.0" x="299.00" y="-1.60" angle="90.00" type="human" speed="0.00" pos="299.00" lane="e0_0" slope="0.00"/>
        <vehicle id="ego" x="71.44" y="-1.60" angle="90.00" type="ego_type" speed="13.89" pos="71.44" lane="e0_0" slope="0.00"/>
    </timestep>
    <timestep time="64.00">
        <vehicle id="background.0" x="299.00" y="-1.60" angle="90.00" type="human" speed="0.00" pos="299.00" lane="e0_0" slope="0.00"/>
        <vehicle id="ego" x="78.38" y="-1.60" angle="90.00" type="ego_type" speed="13.89" pos="78.38" lane="e0_0" slope="0.00"/>
    </timestep>
    <timestep time="64.50">
        <vehicle id="background.0" x="299.00" y="-1.60" angle="90.00" type="human" speed="0.00" pos="299.00" lane="e0_0" slope="0.00"/>
        <vehicle id="ego" x="85.32" y="-1.60" angle="90.00" type="ego_type" speed="13.89" pos="85.32" lane="e0_0" slope="0.00"/>
    </timestep>
    <timestep time="65.00">
        <vehicle id="background.0" x="299.00" y="-1.60" angle="90.00" type="human" speed="0.00" pos="299.00" lane="e0_0" slope="0.00"/>
        <vehicle id="ego" x="92.27" y="-1.60" angle="90.00" type="ego_type" speed="13.89" pos="92.27" lane="e0_0" slope="0.00"/>
    </timestep>
    <timestep time="65.50">
        <vehicle id="background.0" x="299.00" y="-1.60" angle="90.00" type="human" speed="0.00" pos="299.00" lane="e0_0" slope="0.00"/>
        <vehicle id="ego" x="99.21" y="-1.60" angle="90.00" type="ego_type" speed="13.89" pos="99.21" lane="e0_0" slope="0.00"/>
    </timestep>
    <timestep time="66.00">
        <vehicle id="background.0" x="299.00" y="-1.60" angle="90.00" type="human" speed="0.00" pos="299.00" lane="e0_0" slope="0.00"/>
        <vehicle id="ego" x="106.16" y="-1.60" angle="90.00" type="ego_type" speed="13.89" pos="106.16" lane="e0_0" slope="0.00"/>
    </timestep>
    <timestep time="66.50">
        <vehicle id="background.0" x="299.00" y="-1.60" angle="90.00" type="human" speed="0.00" pos="299.00" lane="e0_0" slope="0.00"/>
        <vehicle id="ego" x="113.10" y="-1.60" angle="90.00" type="ego_type" speed="13.89" pos="113.10" lane="e0_0" slope="0.00"/>
    </timestep>
    <timestep time="67.00">
        <vehicle id="background.0" x="299.00" y="-1.60" angle="90.00" type="human" speed="0.00" pos="299.00" lane="e0_0" slope="0.00"/>
        <vehicle id="ego" x="120.05" y="-1.60" angle="90.00" type="ego_type" speed="13.89" pos="120.05" lane="e0_0" slope="0.00"/>
    </timestep>
    <timestep time="67.50">
        <vehicle id="background.0" x="299.00" y="-1.60" angle="90.00" type="human" speed="0.00" pos="299.00" lane="e0_0" slope="0.00"/>
        <vehicle id="ego" x="126.99" y="-1.60" angle="90.00" type="ego_type" speed="13.89" pos="126.99" lane="e0_0" slope="0.00"/>
    </timestep>
    <timestep time="68.00">
        <vehicle id="background.0" x="299.00" y="-1.60" angle="90.00" type="human" speed="0.00" pos="299.00" lane="e0_0" slope="0.00"/>
        <vehicle id="ego" x="133.94" y="-1.60" angle="90.00" type="ego_type" speed="13.89" pos="133.94" lane="e0_0" slope="0.00"/>
    </timestep>
    <timestep time="68.50">
        <vehicle id="background.0" x="299.00" y="-1.60" angle="90.00" type="human" speed="0.00" pos="299.00" lane="e0_0" slope="0.00"/>
        <vehicle id="ego" x="140.88" y="-1.60" angle="90.00" type="ego_type" speed="13.89" pos="140.88" lane="e0_0" slope="0.00"/>
    </timestep>
    <timestep time="69.00">
        <vehicle id="background.0" x="299.00" y="-1.60" angle="90.00" type="human" speed="0.00" pos="299.00" lane="e0_0" slope="0.00"/>
        <vehicle id="ego" x="147.83" y="-1.60" angle="90.00" type="ego_type" speed="13.89" pos="147.83" lane="e0_0" slope="0.00"/>
    </timestep>
    <timestep time="69.50">
        <vehicle id="background.0" x="299.00" y="-1.60" angle="90.00" type="human" speed="0.00" pos="299.00" lane="e0_0" slope="0.00"/>
        <vehicle id="ego" x="154.77" y="-1.60" angle="90.00" type="ego_type" speed="13.89" pos="154.77" lane="e0_0" slope="0.00"/>
    </timestep>
    <timestep time="70.00">
        <vehicle id="background.0" x="299.00" y="-1.60" angle="90.00" type="human" speed="0.00" pos="299.00" lane="e0_0" slope="0.00"/>
        <vehicle id="ego" x="161.72" y="-1.60" angle="90.00" type="ego_type" speed="13.89" pos="161.72" lane="e0_0" slope="0.00"/>
    </timestep>
    <timestep time="70.50">
        <vehicle id="background.0" x="299.00" y="-1.60" angle="90.00" type="human" speed="0.00" pos="299.00" lane="e0_0" slope="0.00"/>
        <vehicle id="ego" x="168.66" y="-1.60" angle="90.00" type="ego_type" speed="13.89" pos="168.66" lane="e0_0" slope="0.00"/>
    </timestep>
    <timestep time="71.00">
        <vehicle id="background.0" x="299.00" y="-1.60" angle="90.00" type="human" speed="0.00" pos="299.00" lane="e0_0" slope="0.00"/>
        <vehicle id="ego" x="175.61" y="-1.60" angle="90.00" type="ego_type" speed="13.89" pos="175.61" lane="e0_0" slope="0.00"/>
    </timestep>
    <timestep time="71.50">
        <vehicle id="background.0" x="299.00" y="-1.60" angle="90.00" type="human" speed="0.00" pos="299.00" lane="e0_0" slope="0.00"/>
        <vehicle id="ego" x="182.55" y="-1.60" angle="90.00" type="ego_type" speed="13.89" pos="182.55" lane="e0_0" slope="0.00"/>
    </timestep>
    <timestep time="72.00">
        <vehicle id="background.0" x="299.00" y="-1.60" angle="90.00" type="human" speed="0.00" pos="299.00" lane="e0_0" slope="0.00"/>
        <vehicle id="ego" x="189.50" y="-1.60" angle="90.00" type="ego_type" speed="13.89" pos="189.50" lane="e0_0" slope="0.00"/>
    </timestep>
    <timestep time="72.50">
        <vehicle id="background.0" x="299.00" y="-1.60" angle="90.00" type="human" speed="0.00" pos="299.00" lane="e0_0" slope="0.00"/>
        <vehicle id="ego" x="196.44" y="-1.60" angle="90.00" type="ego_type" speed="13.89" pos="196.44" lane="e0_0" slope="0.00"/>
    </timestep>
    <timestep time="73.00">
        <vehicle id="background.0" x="299.00" y="-1.60" angle="90.00" type="human" speed="0.00" pos="299.00" lane="e0_0" slope="0.00"/>
        <vehicle id="ego" x="203.39" y="-1.60" angle="90.00" type="ego_type" speed="13.89" pos="203.39" lane="e0_0" slope="0.00"/>
    </timestep>
    <timestep time="73.50">
        <vehicle id="background.0" x="299.00" y="-1.60" angle="90.00" type="human" speed="0.00" pos="299.00" lane="e0_0" slope="0.00"/>
        <vehicle id="ego" x="210.33" y="-1.60" angle="90.00" type="ego_type" speed="13.89" pos="210.33" lane="e0_0" slope="0.00"/>
    </timestep>
    <timestep time="74.00">
        <vehicle id="background.0" x="299.00" y="-1.60" angle="90.00" type="human" speed="0.00" pos="299.00" lane="e0_0" slope="0.00"/>
        <vehicle id="ego" x="217.28" y="-1.60" angle="90.00" type="ego_type" speed="13.89" pos="217.28" lane="e0_0" slope="0.00"/>
    </timestep>
    <timestep time="74.50">
        <vehicle id="background.0" x="299.00" y="-1.60" angle="90.00" type="human" speed="0.00" pos="299.00" lane="e0_0" slope="0.00"/>
        <vehicle id="ego" x="224.22" y="-1.60" angle="90.00" type="ego_type" speed="13.89" pos="224.22" lane="e0_0" slope="0.00"/>
    </timestep>
    <timestep time="75.00">
        <vehicle id="background.0" x="299.00" y="-1.60" angle="90.00" type="human" speed="0.00" pos="299.00" lane="e0_0" slope="0.00"/>
        <vehicle id="ego" x="231.17" y="-1.60" angle="90.00" type="ego_type" speed="13.89" pos="231.17" lane="e0_0" slope="0.00"/>
    </timestep>
    <timestep time="75.50">
        <vehicle id="background.0" x="299.00" y="-1.60" angle="90.00" type="human" speed="0.00" pos="299.00" lane="e0_0" slope="0.00"/>
        <vehicle id="ego" x="238.11" y="-1.60" angle="90.00" type="ego_type" speed="13.89" pos="238.11" lane="e0_0" slope="0.00"/>
    </timestep>
    <timestep time="76.00">
        <vehicle id="background.0" x="299.00" y="-1.60" angle="90.00" type="human" speed="0.00" pos="299.00" lane="e0_0" slope="0.00"/>
        <vehicle id="ego" x="245.06" y="-1.60" angle="90.00" type="ego_type" speed="13.89" pos="245.06" lane="e0_0" slope="0.00"/>
    </timestep>
    <timestep time="76.50">
        <vehicle id="background.0" x="299.00" y="-1.60" angle="90.00" type="human" speed="0.00" pos="299.00" lane="e0_0" slope="0.00"/>
        <vehicle id="ego" x="252.00" y="-1.60" angle="90.00" type="ego_type" speed="13.89" pos="252.00" lane="e0_0" slope="0.00"/>
    </timestep>
    <timestep time="77.00">
        <vehicle id="background.0" x="299.00" y="-1.60" angle="90.00" type="human" speed="0.00" pos="299.00" lane="e0_0" slope="0.00"/>
        <vehicle id="ego" x="258.95" y="-1.60" angle="90.00" type="ego_type" speed="13.89" pos="258.95" lane="e0_0" slope="0.00"/>
    </timestep>
    <timestep time="77.50">
        <vehicle id="background.0" x="299.00" y="-1.60" angle="90.00" type="human" speed="0.00" pos="299.00" lane="e0_0" slope="0.00"/>
        <vehicle id="ego" x="265.89" y="-1.60" angle="90.00" type="ego_type" speed="13.89" pos="265.89" lane="e0_0" slope="0.00"/>
    </timestep>
    <timestep time="78.00">
        <vehicle id="background.0" x="299.00" y="-1.60" angle="90.00" type="human" speed="0.00" pos="299.00" lane="e0_0" slope="0.00"/>
        <vehicle id="ego" x="271.96" y="-1.60" angle="90.00" type="ego_type" speed="12.14" pos="271.96" lane="e0_0" slope="0.00"/>
    </timestep>
    <timestep time="78.50">
        <vehicle id="background.0" x="299.00" y="-1.60" angle="90.00" type="human" speed="0.00" pos="299.00" lane="e0_0" slope="0.00"/>
        <vehicle id="ego" x="277.09" y="-1.60" angle="90.00" type="ego_type" speed="10.26" pos="277.09" lane="e0_0" slope="0.00"/>
    </timestep>
    <timestep time="79.00">
        <vehicle id="background.0" x="299.00" y="-1.60" angle="90.00" type="human" speed="0.00" pos="299.00" lane="e0_0" slope="0.00"/>
        <vehicle id="ego" x="281.32" y="-1.60" angle="90.00" type="ego_type" speed="8.46" pos="281.32" lane="e0_0" slope="0.00"/>
    </timestep>
    <timestep time="79.50">
        <vehicle id="background.0" x="299.00" y="-1.60" angle="90.00" type="human" speed="0.00" pos="299.00" lane="e0_0" slope="0.00"/>
        <vehicle id="ego" x="284.71" y="-1.60" angle="90.00" type="ego_type" speed="6.77" pos="284.71" lane="e0_0" slope="0.00"/>
    </timestep>
    <timestep time="80.00">
        <vehicle id="background.0" x="299.00" y="-1.60" angle="90.00" type="human" speed="0.00" pos="299.00" lane="e0_0" slope="0.00"/>
        <vehicle id="ego" x="287.25" y="-1.60" angle="90.00" type="ego_type" speed="5.08" pos="287.25" lane="e0_0" slope="0.00"/>
    </timestep>
    <timestep time="80.50">
        <vehicle id="background.0" x="299.00" y="-1.60" angle="90.00" type="human" speed="0.00" pos="299.00" lane="e0_0" slope="0.00"/>
        <vehicle id="ego" x="289.04" y="-1.60" angle="90.00" type="ego_type" speed="3.58" pos="289.04" lane="e0_0" slope="0.00"/>
    </timestep>
    <timestep time="81.00">
        <vehicle id="background.0" x="299.00" y="-1.60" angle="90.00" type="human" speed="0.00" pos="299.00" lane="e0_0" slope="0.00"/>
        <vehicle id="ego" x="290.24" y="-1.60" angle="90.00" type="ego_type" speed="2.39" pos="290.24" lane="e0_0" slope="0.00"/>
    </timestep>
    <timestep time="81.50">
        <vehicle id="background.0" x="299.00" y="-1.60" angle="90.00" type="human" speed="0.00" pos="299.00" lane="e0_0" slope="0.00"/>
        <vehicle id="background.1" x="5.10" y="-1.60" angle="90.00" type="human" speed="12.95" pos="5.10" lane="e0_0" slope="0.00"/>
        <vehicle id="ego" x="290.87" y="-1.60" angle="90.00" type="ego_type" speed="1.26" pos="290.87" lane="e0_0" slope="0.00"/>
    </timestep>
    <timestep time="82.00">
        <vehicle id="background.0" x="299.00" y="-1.60" angle="90.00" type="human" speed="0.00" pos="299.00" lane="e0_0" slope="0.00"/>
        <vehicle id="background.1" x="11.51" y="-1.60" angle="90.00" type="human" speed="12.82" pos="11.51" lane="e0_0" slope="0.00"/>
        <vehicle id="ego" x="291.18" y="-1.60" angle="90.00" type="ego_type" speed="0.63" pos="291.18" lane="e0_0" slope="0.00"/>
    </timestep>
    <timestep time="82.50">
        <vehicle id="background.0" x="299.00" y="-1.60" angle="90.00" type="human" speed="0.00" pos="299.00" lane="e0_0" slope="0.00"/>
        <vehicle id="background.1" x="17.97" y="-1.60" angle="90.00" type="human" speed="12.92" pos="17.97" lane="e0_0" slope="0.00"/>
        <vehicle id="ego" x="291.34" y="-1.60" angle="90.00" type="ego_type" speed="0.32" pos="291.34" lane="e0_0" slope="0.00"/>
    </timestep>
    <timestep time="83.00">
        <vehicle id="background.0" x="299.00" y="-1.60" angle="90.00" type="human" speed="0.00" pos="299.00" lane="e0_0" slope="0.00"/>
        <vehicle id="background.1" x="24.20" y="-1.60" angle="90.00" type="human" speed="12.46" pos="24.20" lane="e0_0" slope="0.00"/>
        <vehicle id="ego" x="291.42" y="-1.60" angle="90.00" type="ego_type" speed="0.16" pos="291.42" lane="e0_0" slope="0.00"/>
    </timestep>
    <timestep time="83.50">
        <vehicle id="background.0" x="299.00" y="-1.60" angle="90.00" type="human" speed="0.00" pos="299.00" lane="e0_0" slope="0.00"/>
        <vehicle id="background.1" x="30.63" y="-1.60" angle="90.00" type="human" speed="12.86" pos="30.63" lane="e0_0" slope="0.00"/>
        <vehicle id="ego" x="291.46" y="-1.60" angle="90.00" type="ego_type" speed="0.08" pos="291.46" lane="e0_0" slope="0.00"/>
    </timestep>
    <timestep time="84.00">
        <vehicle id="background.0" x="299.00" y="-1.60" angle="90.00" type="human" speed="0.00" pos="299.00" lane="e0_0" slope="0.00"/>
        <vehicle id="background.1" x="36.98" y="-1.60" angle="90.00" type="human" speed="12.71" pos="36.98" lane="e0_0" slope="0.00"/>
        <vehicle id="ego" x="291.48" y="-1.60" angle="90.00" type="ego_type" speed="0.04" pos="291.48" lane="e0_0" slope="0.00"/>
    </timestep>
    <timestep time="84.50">
        <vehicle id="background.0" x="299.00" y="-1.60" angle="90.00" type="human" speed="0.00" pos="299.00" lane="e0_0" slope="0.00"/>
        <vehicle id="background.1" x="43.36" y="-1.60" angle="90.00" type="human" speed="12.75" pos="43.36" lane="e0_0" slope="0.00"/>
        <vehicle id="ego" x="291.49" y="-1.60" angle="90.00" type="ego_type" speed="0.02" pos="291.49" lane="e0_0" slope="0.00"/>
    </timestep>
    <timestep time="85.00">