<?xml version="1.0" encoding="UTF-8"?>

<!-- generated on 2026-05-14 17:05:14 by Eclipse SUMO sumo Version 1.24.0
<sumoConfiguration xmlns:xsi="http://www.w3.org/2001/XMLSchema-instance" xsi:noNamespaceSchemaLocation="http://sumo.dlr.de/xsd/sumoConfiguration.xsd">

    <input>
        <net-file value="scenarios/simple_arterial/simple_arterial.net.xml"/>
        <route-files value="scenarios/simple_arterial/simple_arterial.rou.xml"/>
        <additional-files value="scenarios/simple_arterial/simple_arterial.tls.xml"/>
    </input>

    <output>
        <fcd-output value="runs/fcd_expert_default/episode_00075_seed_117.fcd.xml"/>
    </output>

    <time>
        <begin value="0"/>
        <end value="900"/>
        <step-length value="0.5"/>
    </time>

    <report>
        <no-warnings value="true"/>
    </report>

    <traci_server>
        <remote-port value="24542"/>
    </traci_server>

    <random_number>
        <seed value="117"/>
    </random_number>

</sumoConfiguration>
-->

<fcd-export xmlns:xsi="http://www.w3.org/2001/XMLSchema-instance" xsi:noNamespaceSchemaLocation="http://sumo.dlr.de/xsd/fcd_file.xsd">
    <timestep time="0.00"/>
    <timestep time="0.50"/>
    <timestep time="1.00"/>
    <timestep time="1.50"/>
    <timestep time="2.00"/>
    <timestep time="2.50"/>
    <timestep time="3.00"/>
    <timestep time="3.50"/>
    <timestep time="4.00"/>
    <timestep time="4.50"/>
    <timestep time="5.00"/>
    <timestep time="5.50"/>
    <timestep time="6.00"/>
    <timestep time="6.50"/>
    <timestep time="7.00"/>
    <timestep time="7.50"/>
    <timestep time="8.00"/>
    <timestep time="8.50"/>
    <timestep time="9.00"/>
    <timestep time="9.50"/>
    <timestep time="10.00"/>
    <timestep time="10.50"/>
    <timestep time="11.00"/>
    <timestep time="11.50"/>
    <timestep time="12.00"/>
    <timestep time="12.50"/>
    <timestep time="13.00"/>
    <timestep time="13.50"/>
    <timestep time="14.00"/>
    <timestep time="14.50"/>
    <timestep time="15.00"/>
    <timestep time="15.50"/>
    <timestep time="16.00"/>
    <timestep time="16.50"/>
    <timestep time="17.00"/>
    <timestep time="17.50"/>
    <timestep time="18.00"/>
    <timestep time="18.50"/>
    <timestep time="19.00"/>
    <timestep time="19.50"/>
    <timestep time="20.00">
        <vehicle id="background.0" x="5.10" y="-1.60" angle="90.00" type="human" speed="13.56" pos="5.10" lane="e0_0" slope="0.00"/>
    </timestep>
    <timestep time="20.50">
        <vehicle id="background.0" x="11.64" y="-1.60" angle="90.00" type="human" speed="13.09" pos="11.64" lane="e0_0" slope="0.00"/>
    </timestep>
    <timestep time="21.00">
        <vehicle id="background.0" x="18.39" y="-1.60" angle="90.00" type="human" speed="13.50" pos="18.39" lane="e0_0" slope="0.00"/>
        <vehicle id="background.1" x="5.10" y="-1.60" angle="90.00" type="human" speed="11.30" pos="5.10" lane="e0_0" slope="0.00"/>
    </timestep>
    <timestep time="21.50">
        <vehicle id="background.0" x="25.03" y="-1.60" angle="90.00" type="human" speed="13.27" pos="25.03" lane="e0_0" slope="0.00"/>
        <vehicle id="background.1" x="10.70" y="-1.60" angle="90.00" type="human" speed="11.20" pos="10.70" lane="e0_0" slope="0.00"/>
    </timestep>
    <timestep time="22.00">
        <vehicle id="background.0" x="31.79" y="-1.60" angle="90.00" type="human" speed="13.53" pos="31.79" lane="e0_0" slope="0.00"/>
        <vehicle id="background.1" x="16.34" y="-1.60" angle="90.00" type="human" speed="11.27" pos="16.34" lane="e0_0" slope="0.00"/>
        <vehicle id="background.2" x="5.10" y="-1.60" angle="90.00" type="human" speed="8.72" pos="5.10" lane="e0_0" slope="0.00"/>
    </timestep>
    <timestep time="22.50">
        <vehicle id="background.0" x="38.34" y="-1.60" angle="90.00" type="human" speed="13.10" pos="38.34" lane="e0_0" slope="0.00"/>
        <vehicle id="background.1" x="22.21" y="-1.60" angle="90.00" type="human" speed="11.75" pos="22.21" lane="e0_0" slope="0.00"/>
        <vehicle id="background.2" x="9.30" y="-1.60" angle="90.00" type="human" speed="8.39" pos="9.30" lane="e0_0" slope="0.00"/>
    </timestep>
    <timestep time="23.00">
        <vehicle id="background.0" x="44.87" y="-1.60" angle="90.00" type="human" speed="13.06" pos="44.87" lane="e0_0" slope="0.00"/>
        <vehicle id="background.1" x="27.89" y="-1.60" angle="90.00" type="human" speed="11.36" pos="27.89" lane="e0_0" slope="0.00"/>
        <vehicle id="background.2" x="13.83" y="-1.60" angle="90.00" type="human" speed="9.06" pos="13.83" lane="e0_0" slope="0.00"/>
    </timestep>
    <timestep time="23.50">
        <vehicle id="background.0" x="51.62" y="-1.60" angle="90.00" type="human" speed="13.49" pos="51.62" lane="e0_0" slope="0.00"/>
        <vehicle id="background.1" x="33.72" y="-1.60" angle="90.00" type="human" speed="11.67" pos="33.72" lane="e0_0" slope="0.00"/>
        <vehicle id="background.2" x="18.57" y="-1.60" angle="90.00" type="human" speed="9.49" pos="18.57" lane="e0_0" slope="0.00"/>
    </timestep>
    <timestep time="24.00">
        <vehicle id="background.0" x="58.39" y="-1.60" angle="90.00" type="human" speed="13.55" pos="58.39" lane="e0_0" slope="0.00"/>
        <vehicle id="background.1" x="39.80" y="-1.60" angle="90.00" type="human" speed="12.16" pos="39.80" lane="e0_0" slope="0.00"/>
        <vehicle id="background.2" x="23.62" y="-1.60" angle="90.00" type="human" speed="10.10" pos="23.62" lane="e0_0" slope="0.00"/>
    </timestep>
    <timestep time="24.50">
        <vehicle id="background.0" x="64.93" y="-1.60" angle="90.00" type="human" speed="13.06" pos="64.93" lane="e0_0" slope="0.00"/>
        <vehicle id="background.1" x="46.16" y="-1.60" angle="90.00" type="human" speed="12.71" pos="46.16" lane="e0_0" slope="0.00"/>
        <vehicle id="background.2" x="29.04" y="-1.60" angle="90.00" type="human" speed="10.84" pos="29.04" lane="e0_0" slope="0.00"/>
    </timestep>
    <timestep time="25.00">
        <vehicle id="background.0" x="71.48" y="-1.60" angle="90.00" type="human" speed="13.11" pos="71.48" lane="e0_0" slope="0.00"/>
        <vehicle id="background.1" x="52.27" y="-1.60" angle="90.00" type="human" speed="12.23" pos="52.27" lane="e0_0" slope="0.00"/>
        <vehicle id="background.2" x="34.89" y="-1.60" angle="90.00" type="human" speed="11.71" pos="34.89" lane="e0_0" slope="0.00"/>
    </timestep>
    <timestep time="25.50">
        <vehicle id="background.0" x="78.05" y="-1.60" angle="90.00" type="human" speed="13.14" pos="78.05" lane="e0_0" slope="0.00"/>
        <vehicle id="background.1" x="58.53" y="-1.60" angle="90.00" type="human" speed="12.51" pos="58.53" lane="e0_0" slope="0.00"/>
        <vehicle id="background.2" x="40.52" y="-1.60" angle="90.00" type="human" speed="11.25" pos="40.52" lane="e0_0" slope="0.00"/>
    </timestep>
    <timestep time="26.00">
        <vehicle id="background.0" x="84.61" y="-1.60" angle="90.00" type="human" speed="13.12" pos="84.61" lane="e0_0" slope="0.00"/>
        <vehicle id="background.1" x="64.78" y="-1.60" angle="90.00" type="human" speed="12.50" pos="64.78" lane="e0_0" slope="0.00"/>
        <vehicle id="background.2" x="46.40" y="-1.60" angle="90.00" type="human" speed="11.76" pos="46.40" lane="e0_0" slope="0.00"/>
    </timestep>
    <timestep time="26.50">
        <vehicle id="background.0" x="91.16" y="-1.60" angle="90.00" type="human" speed="13.10" pos="91.16" lane="e0_0" slope="0.00"/>
        <vehicle id="background.1" x="71.09" y="-1.60" angle="90.00" type="human" speed="12.63" pos="71.09" lane="e0_0" slope="0.00"/>
        <vehicle id="background.2" x="52.19" y="-1.60" angle="90.00" type="human" speed="11.59" pos="52.19" lane="e0_0" slope="0.00"/>
    </timestep>
    <timestep time="27.00">
        <vehicle id="background.0" x="97.90" y="-1.60" angle="90.00" type="human" speed="13.48" pos="97.90" lane="e0_0" slope="0.00"/>
        <vehicle id="background.1" x="77.47" y="-1.60" angle="90.00" type="human" speed="12.75" pos="77.47" lane="e0_0" slope="0.00"/>
        <vehicle id="background.2" x="58.31" y="-1.60" angle="90.00" type="human" speed="12.23" pos="58.31" lane="e0_0" slope="0.00"/>
    </timestep>
    <timestep time="27.50">
        <vehicle id="background.0" x="104.52" y="-1.60" angle="90.00" type="human" speed="13.23" pos="104.52" lane="e0_0" slope="0.00"/>
        <vehicle id="background.1" x="84.00" y="-1.60" angle="90.00" type="human" speed="13.06" pos="84.00" lane="e0_0" slope="0.00"/>
        <vehicle id="background.2" x="64.36" y="-1.60" angle="90.00" type="human" speed="12.09" pos="64.36" lane="e0_0" slope="0.00"/>
    </timestep>
    <timestep time="28.00">
        <vehicle id="background.0" x="111.14" y="-1.60" angle="90.00" type="human" speed="13.24" pos="111.14" lane="e0_0" slope="0.00"/>
        <vehicle id="background.1" x="90.51" y="-1.60" angle="90.00" type="human" speed="13.01" pos="90.51" lane="e0_0" slope="0.00"/>
        <vehicle id="background.2" x="70.52" y="-1.60" angle="90.00" type="human" speed="12.32" pos="70.52" lane="e0_0" slope="0.00"/>
    </timestep>
    <timestep time="28.50">
        <vehicle id="background.0" x="117.91" y="-1.60" angle="90.00" type="human" speed="13.54" pos="117.91" lane="e0_0" slope="0.00"/>
        <vehicle id="background.1" x="96.91" y="-1.60" angle="90.00" type="human" speed="12.80" pos="96.91" lane="e0_0" slope="0.00"/>
        <vehicle id="background.2" x="76.70" y="-1.60" angle="90.00" type="human" speed="12.37" pos="76.70" lane="e0_0" slope="0.00"/>
    </timestep>
    <timestep time="29.00">
        <vehicle id="background.0" x="124.59" y="-1.60" angle="90.00" type="human" speed="13.37" pos="124.59" lane="e0_0" slope="0.00"/>
        <vehicle id="background.1" x="103.46" y="-1.60" angle="90.00" type="human" speed="13.12" pos="103.46" lane="e0_0" slope="0.00"/>
        <vehicle id="background.2" x="82.96" y="-1.60" angle="90.00" type="human" speed="12.51" pos="82.96" lane="e0_0" slope="0.00"/>
    </timestep>
    <timestep time="29.50">
        <vehicle id="background.0" x="131.25" y="-1.60" angle="90.00" type="human" speed="13.31" pos="131.25" lane="e0_0" slope="0.00"/>
        <vehicle id="background.1" x="110.03" y="-1.60" angle="90.00" type="human" speed="13.14" pos="110.03" lane="e0_0" slope="0.00"/>
        <vehicle id="background.2" x="89.40" y="-1.60" angle="90.00" type="human" speed="12.88" pos="89.40" lane="e0_0" slope="0.00"/>
    </timestep>
    <timestep time="30.00">
        <vehicle id="background.0" x="137.79" y="-1.60" angle="90.00" type="human" speed="13.09" pos="137.79" lane="e0_0" slope="0.00"/>
        <vehicle id="background.1" x="116.43" y="-1.60" angle="90.00" type="human" speed="12.79" pos="116.43" lane="e0_0" slope="0.00"/>
        <vehicle id="background.2" x="95.81" y="-1.60" angle="90.00" type="human" speed="12.83" pos="95.81" lane="e0_0" slope="0.00"/>
    </timestep>
    <timestep time="30.50">
        <vehicle id="background.0" x="144.49" y="-1.60" angle="90.00" type="human" speed="13.40" pos="144.49" lane="e0_0" slope="0.00"/>
        <vehicle id="background.1" x="122.94" y="-1.60" angle="90.00" type="human" speed="13.03" pos="122.94" lane="e0_0" slope="0.00"/>
        <vehicle id="background.2" x="102.25" y="-1.60" angle="90.00" type="human" speed="12.88" pos="102.25" lane="e0_0" slope="0.00"/>
    </timestep>
    <timestep time="31.00">
        <vehicle id="background.0" x="151.21" y="-1.60" angle="90.00" type="human" speed="13.44" pos="151.21" lane="e0_0" slope="0.00"/>
        <vehicle id="background.1" x="129.44" y="-1.60" angle="90.00" type="human" speed="13.00" pos="129.44" lane="e0_0" slope="0.00"/>
        <vehicle id="background.2" x="108.73" y="-1.60" angle="90.00" type="human" speed="12.96" pos="108.73" lane="e0_0" slope="0.00"/>
    </timestep>
    <timestep time="31.50">
        <vehicle id="background.0" x="157.78" y="-1.60" angle="90.00" type="human" speed="13.13" pos="157.78" lane="e0_0" slope="0.00"/>
        <vehicle id="background.1" x="135.80" y="-1.60" angle="90.00" type="human" speed="12.72" pos="135.80" lane="e0_0" slope="0.00"/>
        <vehicle id="background.2" x="115.15" y="-1.60" angle="90.00" type="human" speed="12.84" pos="115.15" lane="e0_0" slope="0.00"/>
    </timestep>
    <timestep time="32.00">
        <vehicle id="background.0" x="164.33" y="-1.60" angle="90.00" type="human" speed="13.10" pos="164.33" lane="e0_0" slope="0.00"/>
        <vehicle id="background.1" x="142.14" y="-1.60" angle="90.00" type="human" speed="12.67" pos="142.14" lane="e0_0" slope="0.00"/>
        <vehicle id="background.2" x="121.35" y="-1.60" angle="90.00" type="human" speed="12.40" pos="121.35" lane="e0_0" slope="0.00"/>
    </timestep>
    <timestep time="32.50">
        <vehicle id="background.0" x="171.07" y="-1.60" angle="90.00" type="human" speed="13.49" pos="171.07" lane="e0_0" slope="0.00"/>
        <vehicle id="background.1" x="148.53" y="-1.60" angle="90.00" type="human" speed="12.79" pos="148.53" lane="e0_0" slope="0.00"/>
        <vehicle id="background.2" x="127.77" y="-1.60" angle="90.00" type="human" speed="12.83" pos="127.77" lane="e0_0" slope="0.00"/>
    </timestep>
    <timestep time="33.00">
        <vehicle id="background.0" x="177.72" y="-1.60" angle="90.00" type="human" speed="13.30" pos="177.72" lane="e0_0" slope="0.00"/>
        <vehicle id="background.1" x="155.07" y="-1.60" angle="90.00" type="human" speed="13.07" pos="155.07" lane="e0_0" slope="0.00"/>
        <vehicle id="background.2" x="134.07" y="-1.60" angle="90.00" type="human" speed="12.60" pos="134.07" lane="e0_0" slope="0.00"/>
    </timestep>
    <timestep time="33.50">
        <vehicle id="background.0" x="184.41" y="-1.60" angle="90.00" type="human" speed="13.37" pos="184.41" lane="e0_0" slope="0.00"/>
        <vehicle id="background.1" x="161.40" y="-1.60" angle="90.00" type="human" speed="12.68" pos="161.40" lane="e0_0" slope="0.00"/>
        <vehicle id="background.2" x="140.53" y="-1.60" angle="90.00" type="human" speed="12.92" pos="140.53" lane="e0_0" slope="0.00"/>
    </timestep>
    <timestep time="34.00">
        <vehicle id="background.0" x="190.95" y="-1.60" angle="90.00" type="human" speed="13.10" pos="190.95" lane="e0_0" slope="0.00"/>
        <vehicle id="background.1" x="167.83" y="-1.60" angle="90.00" type="human" speed="12.85" pos="167.83" lane="e0_0" slope="0.00"/>
        <vehicle id="background.2" x="146.78" y="-1.60" angle="90.00" type="human" speed="12.51" pos="146.78" lane="e0_0" slope="0.00"/>
    </timestep>
    <timestep time="34.50">
        <vehicle id="background.0" x="197.62" y="-1.60" angle="90.00" type="human" speed="13.32" pos="197.62" lane="e0_0" slope="0.00"/>
        <vehicle id="background.1" x="174.33" y="-1.60" angle="90.00" type="human" speed="12.99" pos="174.33" lane="e0_0" slope="0.00"/>
        <vehicle id="background.2" x="153.25" y="-1.60" angle="90.00" type="human" speed="12.93" pos="153.25" lane="e0_0" slope="0.00"/>
    </timestep>
    <timestep time="35.00">
        <vehicle id="background.0" x="204.36" y="-1.60" angle="90.00" type="human" speed="13.48" pos="204.36" lane="e0_0" slope="0.00"/>
        <vehicle id="background.1" x="180.89" y="-1.60" angle="90.00" type="human" speed="13.12" pos="180.89" lane="e0_0" slope="0.00"/>
        <vehicle id="background.2" x="159.68" y="-1.60" angle="90.00" type="human" speed="12.86" pos="159.68" lane="e0_0" slope="0.00"/>
    </timestep>
    <timestep time="35.50">
        <vehicle id="background.0" x="210.90" y="-1.60" angle="90.00" type="human" speed="13.08" pos="210.90" lane="e0_0" slope="0.00"/>
        <vehicle id="background.1" x="187.44" y="-1.60" angle="90.00" type="human" speed="13.11" pos="187.44" lane="e0_0" slope="0.00"/>
        <vehicle id="background.2" x="166.14" y="-1.60" angle="90.00" type="human" speed="12.93" pos="166.14" lane="e0_0" slope="0.00"/>
    </timestep>
    <timestep time="36.00">
        <vehicle id="background.0" x="217.49" y="-1.60" angle="90.00" type="human" speed="13.20" pos="217.49" lane="e0_0" slope="0.00"/>
        <vehicle id="background.1" x="193.82" y="-1.60" angle="90.00" type="human" speed="12.76" pos="193.82" lane="e0_0" slope="0.00"/>
        <vehicle id="background.2" x="172.63" y="-1.60" angle="90.00" type="human" speed="12.98" pos="172.63" lane="e0_0" slope="0.00"/>
    </timestep>
    <timestep time="36.50">
        <vehicle id="background.0" x="224.16" y="-1.60" angle="90.00" type="human" speed="13.34" pos="224.16" lane="e0_0" slope="0.00"/>
        <vehicle id="background.1" x="200.17" y="-1.60" angle="90.00" type="human" speed="12.70" pos="200.17" lane="e0_0" slope="0.00"/>
        <vehicle id="background.2" x="178.94" y="-1.60" angle="90.00" type="human" speed="12.61" pos="178.94" lane="e0_0" slope="0.00"/>
    </timestep>
    <timestep time="37.00">
        <vehicle id="background.0" x="230.91" y="-1.60" angle="90.00" type="human" speed="13.49" pos="230.91" lane="e0_0" slope="0.00"/>
        <vehicle id="background.1" x="206.74" y="-1.60" angle="90.00" type="human" speed="13.14" pos="206.74" lane="e0_0" slope="0.00"/>
        <vehicle id="background.2" x="185.28" y="-1.60" angle="90.00" type="human" speed="12.68" pos="185.28" lane="e0_0" slope="0.00"/>
    </timestep>
    <timestep time="37.50">
        <vehicle id="background.0" x="237.52" y="-1.60" angle="90.00" type="human" speed="13.22" pos="237.52" lane="e0_0" slope="0.00"/>
        <vehicle id="background.1" x="213.25" y="-1.60" angle="90.00" type="human" speed="13.02" pos="213.25" lane="e0_0" slope="0.00"/>
        <vehicle id="background.2" x="191.92" y="-1.60" angle="90.00" type="human" speed="13.29" pos="191.92" lane="e0_0" slope="0.00"/>
    </timestep>
    <timestep time="38.00">
        <vehicle id="background.0" x="244.25" y="-1.60" angle="90.00" type="human" speed="13.46" pos="244.25" lane="e0_0" slope="0.00"/>
        <vehicle id="background.1" x="219.60" y="-1.60" angle="90.00" type="human" speed="12.70" pos="219.60" lane="e0_0" slope="0.00"/>
        <vehicle id="background.2" x="198.51" y="-1.60" angle="90.00" type="human" speed="13.17" pos="198.51" lane="e0_0" slope="0.00"/>
    </timestep>
    <timestep time="38.50">
        <vehicle id="background.0" x="250.97" y="-1.60" angle="90.00" type="human" speed="13.45" pos="250.97" lane="e0_0" slope="0.00"/>
        <vehicle id="background.1" x="226.13" y="-1.60" angle="90.00" type="human" speed="13.06" pos="226.13" lane="e0_0" slope="0.00"/>
        <vehicle id="background.2" x="204.88" y="-1.60" angle="90.00" type="human" speed="12.74" pos="204.88" lane="e0_0" slope="0.00"/>
    </timestep>
    <timestep time="39.00">
        <vehicle id="background.0" x="257.72" y="-1.60" angle="90.00" type="human" speed="13.48" pos="257.72" lane="e0_0" slope="0.00"/>
        <vehicle id="background.1" x="232.63" y="-1.60" angle="90.00" type="human" speed="13.00" pos="232.63" lane="e0_0" slope="0.00"/>
        <vehicle id="background.2" x="211.34" y="-1.60" angle="90.00" type="human" speed="12.93" pos="211.34" lane="e0_0" slope="0.00"/>
    </timestep>
    <timestep time="39.50">
        <vehicle id="background.0" x="264.39" y="-1.60" angle="90.00" type="human" speed="13.35" pos="264.39" lane="e0_0" slope="0.00"/>
        <vehicle id="background.1" x="239.21" y="-1.60" angle="90.00" type="human" speed="13.16" pos="239.21" lane="e0_0" slope="0.00"/>
        <vehicle id="background.2" x="217.92" y="-1.60" angle="90.00" type="human" speed="13.15" pos="217.92" lane="e0_0" slope="0.00"/>
    </timestep>
    <timestep time="40.00">
        <vehicle id="background.0" x="270.99" y="-1.60" angle="90.00" type="human" speed="13.20" pos="270.99" lane="e0_0" slope="0.00"/>
        <vehicle id="background.1" x="245.54" y="-1.60" angle="90.00" type="human" speed="12.68" pos="245.54" lane="e0_0" slope="0.00"/>
        <vehicle id="background.2" x="224.43" y="-1.60" angle="90.00" type="human" speed="13.03" pos="224.43" lane="e0_0" slope="0.00"/>
    </timestep>
    <timestep time="40.50">
        <vehicle id="background.0" x="277.52" y="-1.60" angle="90.00" type="human" speed="13.06" pos="277.52" lane="e0_0" slope="0.00"/>
        <vehicle id="background.1" x="251.98" y="-1.60" angle="90.00" type="human" speed="12.87" pos="251.98" lane="e0_0" slope="0.00"/>
        <vehicle id="background.2" x="230.84" y="-1.60" angle="90.00" type="human" speed="12.81" pos="230.84" lane="e0_0" slope="0.00"/>
    </timestep>
    <timestep time="41.00">
        <vehicle id="background.0" x="284.20" y="-1.60" angle="90.00" type="human" speed="13.36" pos="284.20" lane="e0_0" slope="0.00"/>
        <vehicle id="background.1" x="258.54" y="-1.60" angle="90.00" type="human" speed="13.12" pos="258.54" lane="e0_0" slope="0.00"/>
        <vehicle id="background.2" x="237.16" y="-1.60" angle="90.00" type="human" speed="12.65" pos="237.16" lane="e0_0" slope="0.00"/>
    </timestep>
    <timestep time="41.50">
        <vehicle id="background.0" x="290.91" y="-1.60" angle="90.00" type="human" speed="13.42" pos="290.91" lane="e0_0" slope="0.00"/>
        <vehicle id="background.1" x="265.04" y="-1.60" angle="90.00" type="human" speed="12.99" pos="265.04" lane="e0_0" slope="0.00"/>
        <vehicle id="background.2" x="243.62" y="-1.60" angle="90.00" type="human" speed="12.93" pos="243.62" lane="e0_0" slope="0.00"/>
    </timestep>
    <timestep time="42.00">
        <vehicle id="background.0" x="297.65" y="-1.60" angle="90.00" type="human" speed="13.48" pos="297.65" lane="e0_0" slope="0.00"/>
        <vehicle id="background.1" x="271.45" y="-1.60" angle="90.00" type="human" speed="12.84" pos="271.45" lane="e0_0" slope="0.00"/>
        <vehicle id="background.2" x="250.06" y="-1.60" angle="90.00" type="human" speed="12.87" pos="250.06" lane="e0_0" slope="0.00"/>
    </timestep>
    <timestep time="42.50">
        <vehicle id="background.0" x="304.19" y="-1.60" angle="90.00" type="human" speed="13.26" pos="4.19" lane="e1_0" slope="0.00"/>
        <vehicle id="background.1" x="277.84" y="-1.60" angle="90.00" type="human" speed="12.77" pos="277.84" lane="e0_0" slope="0.00"/>
        <vehicle id="background.2" x="256.44" y="-1.60" angle="90.00" type="human" speed="12.77" pos="256.44" lane="e0_0" slope="0.00"/>
    </timestep>
    <timestep time="43.00">
        <vehicle id="background.0" x="310.75" y="-1.60" angle="90.00" type="human" speed="13.13" pos="10.75" lane="e1_0" slope="0.00"/>
        <vehicle id="background.1" x="284.38" y="-1.60" angle="90.00" type="human" speed="13.08" pos="284.38" lane="e0_0" slope="0.00"/>
        <vehicle id="background.2" x="262.94" y="-1.60" angle="90.00" type="human" speed="12.99" pos="262.94" lane="e0_0" slope="0.00"/>
    </timestep>
    <timestep time="43.50">
        <vehicle id="background.0" x="317.49" y="-1.60" angle="90.00" type="human" speed="13.47" pos="17.49" lane="e1_0" slope="0.00"/>
        <vehicle id="background.1" x="290.79" y="-1.60" angle="90.00" type="human" speed="12.82" pos="290.79" lane="e0_0" slope="0.00"/>
        <vehicle id="background.2" x="269.53" y="-1.60" angle="90.00" type="human" speed="13.18" pos="269.53" lane="e0_0" slope="0.00"/>
    </timestep>
    <timestep time="44.00">
        <vehicle id="background.0" x="324.14" y="-1.60" angle="90.00" type="human" speed="13.31" pos="24.14" lane="e1_0" slope="0.00"/>
        <vehicle id="background.1" x="297.13" y="-1.60" angle="90.00" type="human" speed="12.68" pos="297.13" lane="e0_0" slope="0.00"/>
        <vehicle id="background.2" x="275.84" y="-1.60" angle="90.00" type="human" speed="12.63" pos="275.84" lane="e0_0" slope="0.00"/>
    </timestep>
    <timestep time="44.50">
        <vehicle id="background.0" x="330.69" y="-1.60" angle="90.00" type="human" speed="13.10" pos="30.69" lane="e1_0" slope="0.00"/>
        <vehicle id="background.1" x="303.53" y="-1.60" angle="90.00" type="human" speed="13.01" pos="3.53" lane="e1_0" slope="0.00"/>
        <vehicle id="background.2" x="282.24" y="-1.60" angle="90.00" type="human" speed="12.79" pos="282.24" lane="e0_0" slope="0.00"/>
    </timestep>
    <timestep time="45.00">
        <vehicle id="background.0" x="337.42" y="-1.60" angle="90.00" type="human" speed="13.45" pos="37.42" lane="e1_0" slope="0.00"/>
        <vehicle id="background.1" x="310.10" y="-1.60" angle="90.00" type="human" speed="13.13" pos="10.10" lane="e1_0" slope="0.00"/>
        <vehicle id="background.2" x="287.80" y="-1.60" angle="90.00" type="human" speed="11.13" pos="287.80" lane="e0_0" slope="0.00"/>
    </timestep>
    <timestep time="45.50">
        <vehicle id="background.0" x="344.01" y="-1.60" angle="90.00" type="human" speed="13.18" pos="44.01" lane="e1_0" slope="0.00"/>
        <vehicle id="background.1" x="316.44" y="-1.60" angle="90.00" type="human" speed="12.68" pos="16.44" lane="e1_0" slope="0.00"/>
        <vehicle id="background.2" x="292.24" y="-1.60" angle="90.00" type="human" speed="8.88" pos="292.24" lane="e0_0" slope="0.00"/>
    </timestep>
    <timestep time="46.00">
        <vehicle id="background.1" x="322.99" y="-1.60" angle="90.00" type="human" speed="13.10" pos="22.99" lane="e1_0" slope="0.00"/>
        <vehicle id="background.2" x="295.55" y="-1.60" angle="90.00" type="human" speed="6.63" pos="295.55" lane="e0_0" slope="0.00"/>
    </timestep>
    <timestep time="46.50">
        <vehicle id="background.1" x="329.56" y="-1.60" angle="90.00" type="human" speed="13.13" pos="29.56" lane="e1_0" slope="0.00"/>
        <vehicle id="background.2" x="297.74" y="-1.60" angle="90.00" type="human" speed="4.38" pos="297.74" lane="e0_0" slope="0.00"/>
    </timestep>
    <timestep time="47.00">
        <vehicle id="background.1" x="336.04" y="-1.60" angle="90.00" type="human" speed="12.98" pos="36.04" lane="e1_0" slope="0.00"/>
        <vehicle id="background.2" x="298.80" y="-1.60" angle="90.00" type="human" speed="2.13" pos="298.80" lane="e0_0" slope="0.00"/>
    </timestep>
    <timestep time="47.50">
        <vehicle id="background.1" x="342.61" y="-1.60" angle="90.00" type="human" speed="13.14" pos="42.61" lane="e1_0" slope="0.00"/>
        <vehicle id="background.2" x="298.98" y="-1.60" angle="90.00" type="human" speed="0.35" pos="298.98" lane="e0_0" slope="0.00"/>
    </timestep>
    <timestep time="48.00">
        <vehicle id="background.1" x="349.13" y="-1.60" angle="90.00" type="human" speed="13.02" pos="49.13" lane="e1_0" slope="0.00"/>
        <vehicle id="background.2" x="298.99" y="-1.60" angle="90.00" type="human" speed="0.04" pos="298.99" lane="e0_0" slope="0.00"/>
    </timestep>
    <timestep time="48.50">
        <vehicle id="background.2" x="299.00" y="-1.60" angle="90.00" type="human" speed="0.01" pos="299.00" lane="e0_0" slope="0.00"/>
    </timestep>
    <timestep time="49.00">
        <vehicle id="background.2" x="299.00" y="-1.60" angle="90.00" type="human" speed="0.00" pos="299.00" lane="e0_0" slope="0.00"/>
    </timestep>
    <timestep time="49.50">
        <vehicle id="background.2" x="299.00" y="-1.60" angle="90.00" type="human" speed="0.00" pos="299.00" lane="e0_0" slope="0.00"/>
    </timestep>
    <timestep time="50.00">
        <vehicle id="background.2" x="299.00" y="-1.60" angle="90.00" type="human" speed="0.00" pos="299.00" lane="e0_0" slope="0.00"/>
    </timestep>
    <timestep time="50.50">
        <vehicle id="background.2" x="299.00" y="-1.60" angle="90.00" type="human" speed="0.00" pos="299.00" lane="e0_0" slope="0.00"/>
    </timestep>
    <timestep time="51.00">
        <vehicle id="background.2" x="299.00" y="-1.60" angle="90.00" type="human" speed="0.00" pos="299.00" lane="e0_0" slope="0.00"/>
    </timestep>
    <timestep time="51.50">
        <vehicle id="background.2" x="299.00" y="-1.60" angle="90.00" type="human" speed="0.00" pos="299.00" lane="e0_0" slope="0.00"/>
    </timestep>
    <timestep time="52.00">
        <vehicle id="background.2" x="299.00" y="-1.60" angle="90.00" type="human" speed="0.00" pos="299.00" lane="e0_0" slope="0.00"/>
    </timestep>
    <timestep time="52.50">
        <vehicle id="background.2" x="299.00" y="-1.60" angle="90.00" type="human" speed="0.00" pos="299.00" lane="e0_0" slope="0.00"/>
    </timestep>
    <timestep time="53.00">
        <vehicle id="background.2" x="299.00" y="-1.60" angle="90.00" type="human" speed="0.00" pos="299.00" lane="e0_0" slope="0.00"/>
    </timestep>
    <timestep time="53.50">
        <vehicle id="background.2" x="299.00" y="-1.60" angle="90.00" type="human" speed="0.00" pos="299.00" lane="e0_0" slope="0.00"/>
    </timestep>
    <timestep time="54.00">
        <vehicle id="background.2" x="299.00" y="-1.60" angle="90.00" type="human" speed="0.00" pos="299.00" lane="e0_0" slope="0.00"/>
    </timestep>
    <timestep time="54.50">
        <vehicle id="background.2" x="299.00" y="-1.60" angle="90.00" type="human" speed="0.00" pos="299.00" lane="e0_0" slope="0.00"/>
    </timestep>
    <timestep time="55.00">
        <vehicle id="background.2" x="299.00" y="-1.60" angle="90.00" type="human" speed="0.00" pos="299.00" lane="e0_0" slope="0.00"/>
    </timestep>
    <timestep time="55.50">
        <vehicle id="background.2" x="299.00" y="-1.60" angle="90.00" type="human" speed="0.00" pos="299.00" lane="e0_0" slope="0.00"/>
    </timestep>
    <timestep time="56.00">
        <vehicle id="background.2" x="299.00" y="-1.60" angle="90.00" type="human" speed="0.00" pos="299.00" lane="e0_0" slope="0.00"/>
    </timestep>
    <timestep time="56.50">
        <vehicle id="background.2" x="299.00" y="-1.60" angle="90.00" type="human" speed="0.00" pos="299.00" lane="e0_0" slope="0.00"/>
    </timestep>
    <timestep time="57.00">
        <vehicle id="background.2" x="299.00" y="-1.60" angle="90.00" type="human" speed="0.00" pos="299.00" lane="e0_0" slope="0.00"/>
    </timestep>
    <timestep time="57.50">
        <vehicle id="background.2" x="299.00" y="-1.60" angle="90.00" type="human" speed="0.00" pos="299.00" lane="e0_0" slope="0.00"/>
    </timestep>