<?xml version="1.0" encoding="UTF-8"?>

<!-- generated on 2026-05-13 21:24:19 by Eclipse SUMO sumo Version 1.24.0
<sumoConfiguration xmlns:xsi="http://www.w3.org/2001/XMLSchema-instance" xsi:noNamespaceSchemaLocation="http://sumo.dlr.de/xsd/sumoConfiguration.xsd">

    <input>
        <net-file value="scenarios/simple_arterial/simple_arterial.net.xml"/>
        <route-files value="scenarios/simple_arterial/simple_arterial_glosa.rou.xml"/>
        <additional-files value="scenarios/simple_arterial/simple_arterial.tls.xml"/>
    </input>

    <output>
        <fcd-output value="runs/fcd_expert_glosa/episode_00010_seed_52.fcd.xml"/>
    </output>

    <time>
        <begin value="0"/>
        <end value="900"/>
        <step-length value="0.5"/>
    </time>

    <report>
        <no-warnings value="true"/>
    </report>

    <traci_server>
        <remote-port value="27311"/>
    </traci_server>

    <random_number>
        <seed value="52"/>
    </random_number>

</sumoConfiguration>
-->

<fcd-export xmlns:xsi="http://www.w3.org/2001/XMLSchema-instance" xsi:noNamespaceSchemaLocation="http://sumo.dlr.de/xsd/fcd_file.xsd">
    <timestep time="0.00"/>
    <timestep time="0.50"/>
    <timestep time="1.00">
        <vehicle id="background.0" x="5.10" y="-1.60" angle="90.00" type="human" speed="13.89" pos="5.10" lane="e0_0" slope="0.00"/>
    </timestep>
    <timestep time="1.50">
        <vehicle id="background.0" x="11.83" y="-1.60" angle="90.00" type="human" speed="13.47" pos="11.83" lane="e0_0" slope="0.00"/>
    </timestep>
    <timestep time="2.00">
        <vehicle id="background.0" x="18.61" y="-1.60" angle="90.00" type="human" speed="13.55" pos="18.61" lane="e0_0" slope="0.00"/>
    </timestep>
    <timestep time="2.50">
        <vehicle id="background.0" x="25.41" y="-1.60" angle="90.00" type="human" speed="13.61" pos="25.41" lane="e0_0" slope="0.00"/>
    </timestep>
    <timestep time="3.00">
        <vehicle id="background.0" x="32.15" y="-1.60" angle="90.00" type="human" speed="13.47" pos="32.15" lane="e0_0" slope="0.00"/>
    </timestep>
    <timestep time="3.50">
        <vehicle id="background.0" x="38.98" y="-1.60" angle="90.00" type="human" speed="13.66" pos="38.98" lane="e0_0" slope="0.00"/>
    </timestep>
    <timestep time="4.00">
        <vehicle id="background.0" x="45.91" y="-1.60" angle="90.00" type="human" speed="13.87" pos="45.91" lane="e0_0" slope="0.00"/>
    </timestep>
    <timestep time="4.50">
        <vehicle id="background.0" x="52.77" y="-1.60" angle="90.00" type="human" speed="13.71" pos="52.77" lane="e0_0" slope="0.00"/>
    </timestep>
    <timestep time="5.00">
        <vehicle id="background.0" x="59.52" y="-1.60" angle="90.00" type="human" speed="13.50" pos="59.52" lane="e0_0" slope="0.00"/>
    </timestep>
    <timestep time="5.50">
        <vehicle id="background.0" x="66.32" y="-1.60" angle="90.00" type="human" speed="13.60" pos="66.32" lane="e0_0" slope="0.00"/>
    </timestep>
    <timestep time="6.00">
        <vehicle id="background.0" x="73.09" y="-1.60" angle="90.00" type="human" speed="13.53" pos="73.09" lane="e0_0" slope="0.00"/>
    </timestep>
    <timestep time="6.50">
        <vehicle id="background.0" x="79.90" y="-1.60" angle="90.00" type="human" speed="13.62" pos="79.90" lane="e0_0" slope="0.00"/>
    </timestep>
    <timestep time="7.00">
        <vehicle id="background.0" x="86.73" y="-1.60" angle="90.00" type="human" speed="13.66" pos="86.73" lane="e0_0" slope="0.00"/>
    </timestep>
    <timestep time="7.50">
        <vehicle id="background.0" x="93.47" y="-1.60" angle="90.00" type="human" speed="13.48" pos="93.47" lane="e0_0" slope="0.00"/>
    </timestep>
    <timestep time="8.00">
        <vehicle id="background.0" x="100.29" y="-1.60" angle="90.00" type="human" speed="13.65" pos="100.29" lane="e0_0" slope="0.00"/>
    </timestep>
    <timestep time="8.50">
        <vehicle id="background.0" x="107.17" y="-1.60" angle="90.00" type="human" speed="13.76" pos="107.17" lane="e0_0" slope="0.00"/>
    </timestep>
    <timestep time="9.00">
        <vehicle id="background.0" x="113.89" y="-1.60" angle="90.00" type="human" speed="13.45" pos="113.89" lane="e0_0" slope="0.00"/>
    </timestep>
    <timestep time="9.50">
        <vehicle id="background.0" x="120.72" y="-1.60" angle="90.00" type="human" speed="13.65" pos="120.72" lane="e0_0" slope="0.00"/>
    </timestep>
    <timestep time="10.00">
        <vehicle id="background.0" x="127.48" y="-1.60" angle="90.00" type="human" speed="13.52" pos="127.48" lane="e0_0" slope="0.00"/>
    </timestep>
    <timestep time="10.50">
        <vehicle id="background.0" x="134.34" y="-1.60" angle="90.00" type="human" speed="13.72" pos="134.34" lane="e0_0" slope="0.00"/>
    </timestep>
    <timestep time="11.00">
        <vehicle id="background.0" x="141.13" y="-1.60" angle="90.00" type="human" speed="13.59" pos="141.13" lane="e0_0" slope="0.00"/>
    </timestep>
    <timestep time="11.50">
        <vehicle id="background.0" x="148.05" y="-1.60" angle="90.00" type="human" speed="13.82" pos="148.05" lane="e0_0" slope="0.00"/>
    </timestep>
    <timestep time="12.00">
        <vehicle id="background.0" x="154.77" y="-1.60" angle="90.00" type="human" speed="13.45" pos="154.77" lane="e0_0" slope="0.00"/>
    </timestep>
    <timestep time="12.50">
        <vehicle id="background.0" x="161.65" y="-1.60" angle="90.00" type="human" speed="13.76" pos="161.65" lane="e0_0" slope="0.00"/>
    </timestep>
    <timestep time="13.00">
        <vehicle id="background.0" x="168.52" y="-1.60" angle="90.00" type="human" speed="13.74" pos="168.52" lane="e0_0" slope="0.00"/>
    </timestep>
    <timestep time="13.50">
        <vehicle id="background.0" x="175.45" y="-1.60" angle="90.00" type="human" speed="13.87" pos="175.45" lane="e0_0" slope="0.00"/>
    </timestep>
    <timestep time="14.00">
        <vehicle id="background.0" x="182.40" y="-1.60" angle="90.00" type="human" speed="13.89" pos="182.40" lane="e0_0" slope="0.00"/>
    </timestep>
    <timestep time="14.50">
        <vehicle id="background.0" x="189.24" y="-1.60" angle="90.00" type="human" speed="13.69" pos="189.24" lane="e0_0" slope="0.00"/>
    </timestep>
    <timestep time="15.00">
        <vehicle id="background.0" x="196.06" y="-1.60" angle="90.00" type="human" speed="13.63" pos="196.06" lane="e0_0" slope="0.00"/>
    </timestep>
    <timestep time="15.50">
        <vehicle id="background.0" x="202.91" y="-1.60" angle="90.00" type="human" speed="13.70" pos="202.91" lane="e0_0" slope="0.00"/>
    </timestep>
    <timestep time="16.00">
        <vehicle id="background.0" x="209.61" y="-1.60" angle="90.00" type="human" speed="13.39" pos="209.61" lane="e0_0" slope="0.00"/>
    </timestep>
    <timestep time="16.50">
        <vehicle id="background.0" x="216.41" y="-1.60" angle="90.00" type="human" speed="13.61" pos="216.41" lane="e0_0" slope="0.00"/>
    </timestep>
    <timestep time="17.00">
        <vehicle id="background.0" x="223.34" y="-1.60" angle="90.00" type="human" speed="13.86" pos="223.34" lane="e0_0" slope="0.00"/>
    </timestep>
    <timestep time="17.50">
        <vehicle id="background.0" x="230.06" y="-1.60" angle="90.00" type="human" speed="13.44" pos="230.06" lane="e0_0" slope="0.00"/>
    </timestep>
    <timestep time="18.00">
        <vehicle id="background.0" x="236.76" y="-1.60" angle="90.00" type="human" speed="13.40" pos="236.76" lane="e0_0" slope="0.00"/>
    </timestep>
    <timestep time="18.50">
        <vehicle id="background.0" x="243.66" y="-1.60" angle="90.00" type="human" speed="13.81" pos="243.66" lane="e0_0" slope="0.00"/>
    </timestep>
    <timestep time="19.00">
        <vehicle id="background.0" x="250.42" y="-1.60" angle="90.00" type="human" speed="13.52" pos="250.42" lane="e0_0" slope="0.00"/>
    </timestep>
    <timestep time="19.50">
        <vehicle id="background.0" x="257.27" y="-1.60" angle="90.00" type="human" speed="13.69" pos="257.27" lane="e0_0" slope="0.00"/>
    </timestep>
    <timestep time="20.00">
        <vehicle id="background.0" x="264.09" y="-1.60" angle="90.00" type="human" speed="13.64" pos="264.09" lane="e0_0" slope="0.00"/>
    </timestep>
    <timestep time="20.50">
        <vehicle id="background.0" x="270.87" y="-1.60" angle="90.00" type="human" speed="13.56" pos="270.87" lane="e0_0" slope="0.00"/>
    </timestep>
    <timestep time="21.00">
        <vehicle id="background.0" x="277.57" y="-1.60" angle="90.00" type="human" speed="13.40" pos="277.57" lane="e0_0" slope="0.00"/>
    </timestep>
    <timestep time="21.50">
        <vehicle id="background.0" x="284.37" y="-1.60" angle="90.00" type="human" speed="13.61" pos="284.37" lane="e0_0" slope="0.00"/>
    </timestep>
    <timestep time="22.00">
        <vehicle id="background.0" x="291.16" y="-1.60" angle="90.00" type="human" speed="13.58" pos="291.16" lane="e0_0" slope="0.00"/>
    </timestep>
    <timestep time="22.50">
        <vehicle id="background.0" x="297.97" y="-1.60" angle="90.00" type="human" speed="13.61" pos="297.97" lane="e0_0" slope="0.00"/>
    </timestep>
    <timestep time="23.00">
        <vehicle id="background.0" x="304.63" y="-1.60" angle="90.00" type="human" speed="13.53" pos="4.63" lane="e1_0" slope="0.00"/>
    </timestep>
    <timestep time="23.50">
        <vehicle id="background.0" x="311.47" y="-1.60" angle="90.00" type="human" speed="13.68" pos="11.47" lane="e1_0" slope="0.00"/>
    </timestep>
    <timestep time="24.00">
        <vehicle id="background.0" x="318.37" y="-1.60" angle="90.00" type="human" speed="13.79" pos="18.37" lane="e1_0" slope="0.00"/>
    </timestep>
    <timestep time="24.50">
        <vehicle id="background.0" x="325.22" y="-1.60" angle="90.00" type="human" speed="13.71" pos="25.22" lane="e1_0" slope="0.00"/>
    </timestep>
    <timestep time="25.00">
        <vehicle id="background.0" x="332.17" y="-1.60" angle="90.00" type="human" speed="13.89" pos="32.17" lane="e1_0" slope="0.00"/>
    </timestep>
    <timestep time="25.50">
        <vehicle id="background.0" x="339.06" y="-1.60" angle="90.00" type="human" speed="13.80" pos="39.06" lane="e1_0" slope="0.00"/>
    </timestep>
    <timestep time="26.00">
        <vehicle id="background.0" x="345.76" y="-1.60" angle="90.00" type="human" speed="13.39" pos="45.76" lane="e1_0" slope="0.00"/>
    </timestep>
    <timestep time="26.50"/>
    <timestep time="27.00"/>
    <timestep time="27.50"/>
    <timestep time="28.00"/>
    <timestep time="28.50"/>
    <timestep time="29.00"/>
    <timestep time="29.50"/>
    <timestep time="30.00"/>
    <timestep time="30.50"/>
    <timestep time="31.00"/>
    <timestep time="31.50"/>
    <timestep time="32.00"/>
    <timestep time="32.50"/>
    <timestep time="33.00"/>
    <timestep time="33.50"/>
    <timestep time="34.00"/>
    <timestep time="34.50"/>
    <timestep time="35.00"/>
    <timestep time="35.50"/>
    <timestep time="36.00"/>
    <timestep time="36.50"/>
    <timestep time="37.00"/>
    <timestep time="37.50"/>
    <timestep time="38.00"/>
    <timestep time="38.50"/>
    <timestep time="39.00">
        <vehicle id="background.1" x="5.10" y="-1.60" angle="90.00" type="human" speed="11.97" pos="5.10" lane="e0_0" slope="0.00"/>
    </timestep>
    <timestep time="39.50">
        <vehicle id="background.1" x="10.96" y="-1.60" angle="90.00" type="human" speed="11.71" pos="10.96" lane="e0_0" slope="0.00"/>
    </timestep>
    <timestep time="40.00">
        <vehicle id="background.1" x="16.91" y="-1.60" angle="90.00" type="human" speed="11.91" pos="16.91" lane="e0_0" slope="0.00"/>
    </timestep>
    <timestep time="40.50">
        <vehicle id="background.1" x="22.75" y="-1.60" angle="90.00" type="human" speed="11.67" pos="22.75" lane="e0_0" slope="0.00"/>
    </timestep>
    <timestep time="41.00">
        <vehicle id="background.1" x="28.62" y="-1.60" angle="90.00" type="human" speed="11.76" pos="28.62" lane="e0_0" slope="0.00"/>
    </timestep>
    <timestep time="41.50">
        <vehicle id="background.1" x="34.58" y="-1.60" angle="90.00" type="human" speed="11.91" pos="34.58" lane="e0_0" slope="0.00"/>
    </timestep>
    <timestep time="42.00">
        <vehicle id="background.1" x="40.34" y="-1.60" angle="90.00" type="human" speed="11.52" pos="40.34" lane="e0_0" slope="0.00"/>
    </timestep>
    <timestep time="42.50">
        <vehicle id="background.1" x="46.28" y="-1.60" angle="90.00" type="human" speed="11.88" pos="46.28" lane="e0_0" slope="0.00"/>
    </timestep>
    <timestep time="43.00">
        <vehicle id="background.1" x="52.08" y="-1.60" angle="90.00" type="human" speed="11.61" pos="52.08" lane="e0_0" slope="0.00"/>
    </timestep>
    <timestep time="43.50">
        <vehicle id="background.1" x="57.96" y="-1.60" angle="90.00" type="human" speed="11.75" pos="57.96" lane="e0_0" slope="0.00"/>
    </timestep>
    <timestep time="44.00">
        <vehicle id="background.1" x="63.72" y="-1.60" angle="90.00" type="human" speed="11.52" pos="63.72" lane="e0_0" slope="0.00"/>
    </timestep>
    <timestep time="44.50">
        <vehicle id="background.1" x="69.49" y="-1.60" angle="90.00" type="human" speed="11.54" pos="69.49" lane="e0_0" slope="0.00"/>
    </timestep>
    <timestep time="45.00">
        <vehicle id="background.1" x="75.33" y="-1.60" angle="90.00" type="human" speed="11.69" pos="75.33" lane="e0_0" slope="0.00"/>
    </timestep>
    <timestep time="45.50">
        <vehicle id="background.1" x="81.09" y="-1.60" angle="90.00" type="human" speed="11.53" pos="81.09" lane="e0_0" slope="0.00"/>
    </timestep>
    <timestep time="46.00">
        <vehicle id="background.1" x="86.87" y="-1.60" angle="90.00" type="human" speed="11.55" pos="86.87" lane="e0_0" slope="0.00"/>
    </timestep>
    <timestep time="46.50">
        <vehicle id="background.1" x="92.80" y="-1.60" angle="90.00" type="human" speed="11.86" pos="92.80" lane="e0_0" slope="0.00"/>
    </timestep>
    <timestep time="47.00">
        <vehicle id="background.1" x="98.58" y="-1.60" angle="90.00" type="human" speed="11.57" pos="98.58" lane="e0_0" slope="0.00"/>
    </timestep>
    <timestep time="47.50">
        <vehicle id="background.1" x="104.45" y="-1.60" angle="90.00" type="human" speed="11.74" pos="104.45" lane="e0_0" slope="0.00"/>
    </timestep>
    <timestep time="48.00">
        <vehicle id="background.1" x="110.40" y="-1.60" angle="90.00" type="human" speed="11.90" pos="110.40" lane="e0_0" slope="0.00"/>
    </timestep>
    <timestep time="48.50">
        <vehicle id="background.1" x="116.27" y="-1.60" angle="90.00" type="human" speed="11.74" pos="116.27" lane="e0_0" slope="0.00"/>
    </timestep>
    <timestep time="49.00">
        <vehicle id="background.1" x="122.06" y="-1.60" angle="90.00" type="human" speed="11.58" pos="122.06" lane="e0_0" slope="0.00"/>
    </timestep>
    <timestep time="49.50">
        <vehicle id="background.1" x="127.94" y="-1.60" angle="90.00" type="human" speed="11.76" pos="127.94" lane="e0_0" slope="0.00"/>
    </timestep>
    <timestep time="50.00">
        <vehicle id="background.1" x="133.76" y="-1.60" angle="90.00" type="human" speed="11.63" pos="133.76" lane="e0_0" slope="0.00"/>
    </timestep>
    <timestep time="50.50">
        <vehicle id="background.1" x="139.50" y="-1.60" angle="90.00" type="human" speed="11.49" pos="139.50" lane="e0_0" slope="0.00"/>
    </timestep>
    <timestep time="51.00">
        <vehicle id="background.1" x="145.42" y="-1.60" angle="90.00" type="human" speed="11.83" pos="145.42" lane="e0_0" slope="0.00"/>
    </timestep>
    <timestep time="51.50">
        <vehicle id="background.1" x="151.20" y="-1.60" angle="90.00" type="human" speed="11.56" pos="151.20" lane="e0_0" slope="0.00"/>
    </timestep>
    <timestep time="52.00">
        <vehicle id="background.1" x="157.15" y="-1.60" angle="90.00" type="human" speed="11.90" pos="157.15" lane="e0_0" slope="0.00"/>
    </timestep>
    <timestep time="52.50">
        <vehicle id="background.1" x="162.96" y="-1.60" angle="90.00" type="human" speed="11.62" pos="162.96" lane="e0_0" slope="0.00"/>
    </timestep>
    <timestep time="53.00">
        <vehicle id="background.1" x="168.94" y="-1.60" angle="90.00" type="human" speed="11.95" pos="168.94" lane="e0_0" slope="0.00"/>
    </timestep>
    <timestep time="53.50">
        <vehicle id="background.1" x="174.85" y="-1.60" angle="90.00" type="human" speed="11.82" pos="174.85" lane="e0_0" slope="0.00"/>
    </timestep>
    <timestep time="54.00">
        <vehicle id="background.1" x="180.71" y="-1.60" angle="90.00" type="human" speed="11.73" pos="180.71" lane="e0_0" slope="0.00"/>
    </timestep>
    <timestep time="54.50">
        <vehicle id="background.1" x="186.66" y="-1.60" angle="90.00" type="human" speed="11.90" pos="186.66" lane="e0_0" slope="0.00"/>
    </timestep>
    <timestep time="55.00">
        <vehicle id="background.1" x="192.57" y="-1.60" angle="90.00" type="human" speed="11.82" pos="192.57" lane="e0_0" slope="0.00"/>
    </timestep>
    <timestep time="55.50">
        <vehicle id="background.1" x="198.33" y="-1.60" angle="90.00" type="human" speed="11.50" pos="198.33" lane="e0_0" slope="0.00"/>
        <vehicle id="ego" x="5.10" y="-1.60" angle="90.00" type="ego_glosa_type" speed="0.00" pos="5.10" lane="e0_0" slope="0.00"/>
    </timestep>
    <timestep time="56.00">
        <vehicle id="background.1" x="204.14" y="-1.60" angle="90.00" type="human" speed="11.62" pos="204.14" lane="e0_0" slope="0.00"/>
        <vehicle id="ego" x="5.60" y="-1.60" angle="90.00" type="ego_glosa_type" speed="1.00" pos="5.60" lane="e0_0" slope="0.00"/>
    </timestep>
    <timestep time="56.50">
        <vehicle id="background.1" x="209.91" y="-1.60" angle="90.00" type="human" speed="11.54" pos="209.91" lane="e0_0" slope="0.00"/>
        <vehicle id="ego" x="6.60" y="-1.60" angle="90.00" type="ego_glosa_type" speed="2.00" pos="6.60" lane="e0_0" slope="0.00"/>
    </timestep>
    <timestep time="57.00">
        <vehicle id="background.1" x="215.81" y="-1.60" angle="90.00" type="human" speed="11.81" pos="215.81" lane="e0_0" slope="0.00"/>
        <vehicle id="ego" x="8.10" y="-1.60" angle="90.00" type="ego_glosa_type" speed="3.00" pos="8.10" lane="e0_0" slope="0.00"/>
    </timestep>
    <timestep time="57.50">
        <vehicle id="background.1" x="221.73" y="-1.60" angle="90.00" type="human" speed="11.83" pos="221.73" lane="e0_0" slope="0.00"/>
        <vehicle id="ego" x="10.10" y="-1.60" angle="90.00" type="ego_glosa_type" speed="4.00" pos="10.10" lane="e0_0" slope="0.00"/>
    </timestep>
    <timestep time="58.00">
        <vehicle id="background.1" x="227.54" y="-1.60" angle="90.00" type="human" speed="11.62" pos="227.54" lane="e0_0" slope="0.00"/>
        <vehicle id="ego" x="12.60" y="-1.60" angle="90.00" type="ego_glosa_type" speed="5.00" pos="12.60" lane="e0_0" slope="0.00"/>
    </timestep>
    <timestep time="58.50">
        <vehicle id="background.1" x="233.38" y="-1.60" angle="90.00" type="human" speed="11.69" pos="233.38" lane="e0_0" slope="0.00"/>
        <vehicle id="ego" x="15.60" y="-1.60" angle="90.00" type="ego_glosa_type" speed="6.00" pos="15.60" lane="e0_0" slope="0.00"/>
    </timestep>
    <timestep time="59.00">
        <vehicle id="background.1" x="239.27" y="-1.60" angle="90.00" type="human" speed="11.78" pos="239.27" lane="e0_0" slope="0.00"/>
        <vehicle id="ego" x="19.10" y="-1.60" angle="90.00" type="ego_glosa_type" speed="7.00" pos="19.10" lane="e0_0" slope="0.00"/>
    </timestep>
    <timestep time="59.50">
        <vehicle id="background.1" x="245.23" y="-1.60" angle="90.00" type="human" speed="11.92" pos="245.23" lane="e0_0" slope="0.00"/>
        <vehicle id="ego" x="23.10" y="-1.60" angle="90.00" type="ego_glosa_type" speed="8.00" pos="23.10" lane="e0_0" slope="0.00"/>
    </timestep>
    <timestep time="60.00">
        <vehicle id="background.1" x="251.14" y="-1.60" angle="90.00" type="human" speed="11.82" pos="251.14" lane="e0_0" slope="0.00"/>
        <vehicle id="ego" x="27.21" y="-1.60" angle="90.00" type="ego_glosa_type" speed="8.22" pos="27.21" lane="e0_0" slope="0.00"/>
    </timestep>
    <timestep time="60.50">
        <vehicle id="background.1" x="256.90" y="-1.60" angle="90.00" type="human" speed="11.53" pos="256.90" lane="e0_0" slope="0.00"/>
        <vehicle id="ego" x="31.32" y="-1.60" angle="90.00" type="ego_glosa_type" speed="8.22" pos="31.32" lane="e0_0" slope="0.00"/>
    </timestep>
    <timestep time="61.00">
        <vehicle id="background.1" x="262.70" y="-1.60" angle="90.00" type="human" speed="11.59" pos="262.70" lane="e0_0" slope="0.00"/>
        <vehicle id="ego" x="35.43" y="-1.60" angle="90.00" type="ego_glosa_type" speed="8.22" pos="35.43" lane="e0_0" slope="0.00"/>
    </timestep>
    <timestep time="61.50">
        <vehicle id="background.1" x="268.47" y="-1.60" angle="90.00" type="human" speed="11.54" pos="268.47" lane="e0_0" slope="0.00"/>
        <vehicle id="background.2" x="5.10" y="-1.60" angle="90.00" type="human" speed="13.89" pos="5.10" lane="e0_0" slope="0.00"/>
        <vehicle id="ego" x="39.54" y="-1.60" angle="90.00" type="ego_glosa_type" speed="8.22" pos="39.54" lane="e0_0" slope="0.00"/>
    </timestep>
    <timestep time="62.00">
        <vehicle id="background.1" x="274.36" y="-1.60" angle="90.00" type="human" speed="11.78" pos="274.36" lane="e0_0" slope="0.00"/>
        <vehicle id="background.2" x="11.90" y="-1.60" angle="90.00" type="human" speed="13.60" pos="11.90" lane="e0_0" slope="0.00"/>
        <vehicle id="ego" x="43.65" y="-1.60" angle="90.00" type="ego_glosa_type" speed="8.22" pos="43.65" lane="e0_0" slope="0.00"/>
    </timestep>
    <timestep time="62.50">
        <vehicle id="background.1" x="280.14" y="-1.60" angle="90.00" type="human" speed="11.56" pos="280.14" lane="e0_0" slope="0.00"/>
        <vehicle id="background.2" x="18.56" y="-1.60" angle="90.00" type="human" speed="13.32" pos="18.56" lane="e0_0" slope="0.00"/>
        <vehicle id="ego" x="47.76" y="-1.60" angle="90.00" type="ego_glosa_type" speed="8.22" pos="47.76" lane="e0_0" slope="0.00"/>
    </timestep>
    <timestep time="63.00">
        <vehicle id="background.1" x="286.02" y="-1.60" angle="90.00" type="human" speed="11.76" pos="286.02" lane="e0_0" slope="0.00"/>
        <vehicle id="background.2" x="24.70" y="-1.60" angle="90.00" type="human" speed="12.28" pos="24.70" lane="e0_0" slope="0.00"/>
        <vehicle id="ego" x="51.87" y="-1.60" angle="90.00" type="ego_glosa_type" speed="8.22" pos="51.87" lane="e0_0" slope="0.00"/>
    </timestep>
    <timestep time="63.50">
        <vehicle id="background.1" x="290.78" y="-1.60" angle="90.00" type="human" speed="9.51" pos="290.78" lane="e0_0" slope="0.00"/>
        <vehicle id="background.2" x="30.70" y="-1.60" angle="90.00" type="human" speed="12.00" pos="30.70" lane="e0_0" slope="0.00"/>
        <vehicle id="ego" x="55.97" y="-1.60" angle="90.00" type="ego_glosa_type" speed="8.22" pos="55.97" lane="e0_0" slope="0.00"/>
    </timestep>
    <timestep time="64.00">
        <vehicle id="background.1" x="294.48" y="-1.60" angle="90.00" type="human" speed="7.41" pos="294.48" lane="e0_0" slope="0.00"/>
        <vehicle id="background.2" x="36.24" y="-1.60" angle="90.00" type="human" speed="11.09" pos="36.24" lane="e0_0" slope="0.00"/>
        <vehicle id="ego" x="60.08" y="-1.60" angle="90.00" type="ego_glosa_type" speed="8.22" pos="60.08" lane="e0_0" slope="0.00"/>
    </timestep>
    <timestep time="64.50">
        <vehicle id="background.1" x="297.06" y="-1.60" angle="90.00" type="human" speed="5.16" pos="297.06" lane="e0_0" slope="0.00"/>
        <vehicle id="background.2" x="41.73" y="-1.60" angle="90.00" type="human" speed="10.98" pos="41.73" lane="e0_0" slope="0.00"/>
        <vehicle id="ego" x="64.19" y="-1.60" angle="90.00" type="ego_glosa_type" speed="8.22" pos="64.19" lane="e0_0" slope="0.00"/>
    </timestep>
    <timestep time="65.00">
        <vehicle id="background.1" x="298.51" y="-1.60" angle="90.00" type="human" speed="2.91" pos="298.51" lane="e0_0" slope="0.00"/>
        <vehicle id="background.2" x="46.97" y="-1.60" angle="90.00" type="human" speed="10.47" pos="46.97" lane="e0_0" slope="0.00"/>
        <vehicle id="ego" x="68.30" y="-1.60" angle="90.00" type="ego_glosa_type" speed="8.22" pos="68.30" lane="e0_0" slope="0.00"/>
    </timestep>
    <timestep time="65.50">
        <vehicle id="background.1" x="299.00" y="-1.60" angle="90.00" type="human" speed="0.96" pos="299.00" lane="e0_0" slope="0.00"/>
        <vehicle id="background.2" x="51.89" y="-1.60" angle="90.00" type="human" speed="9.86" pos="51.89" lane="e0_0" slope="0.00"/>
        <vehicle id="ego" x="72.41" y="-1.60" angle="90.00" type="ego_glosa_type" speed="8.22" pos="72.41" lane="e0_0" slope="0.00"/>
    </timestep>
    <timestep time="66.00">
        <vehicle id="background.1" x="299.00" y="-1.60" angle="90.00" type="human" speed="0.01" pos="299.00" lane="e0_0" slope="0.00"/>
        <vehicle id="background.2" x="56.65" y="-1.60" angle="90.00" type="human" speed="9.50" pos="56.65" lane="e0_0" slope="0.00"/>
        <vehicle id="ego" x="76.52" y="-1.60" angle="90.00" type="ego_glosa_type" speed="8.22" pos="76.52" lane="e0_0" slope="0.00"/>
    </timestep>
    <timestep time="66.50">
        <vehicle id="background.1" x="299.00" y="-1.60" angle="90.00" type="human" speed="0.00" pos="299.00" lane="e0_0" slope="0.00"/>
        <vehicle id="background.2" x="61.50" y="-1.60" angle="90.00" type="human" speed="9.71" pos="61.50" lane="e0_0" slope="0.00"/>
        <vehicle id="ego" x="80.63" y="-1.60" angle="90.00" type="ego_glosa_type" speed="8.22" pos="80.63" lane="e0_0" slope="0.00"/>
    </timestep>
    <timestep time="67.00">
        <vehicle id="background.1" x="299.00" y="-1.60" angle="90.00" type="human" speed="0.00" pos="299.00" lane="e0_0" slope="0.00"/>
        <vehicle id="background.2" x="66.22" y="-1.60" angle="90.00" type="human" speed="9.44" pos="66.22" lane="e0_0" slope="0.00"/>
        <vehicle id="ego" x="84.74" y="-1.60" angle="90.00" type="ego_glosa_type" speed="8.22" pos="84.74" lane="e0_0" slope="0.00"/>
    </timestep>
    <timestep time="67.50">
        <vehicle id="background.1" x="299.00" y="-1.60" angle="90.00" type="human" speed="0.00" pos="299.00" lane="e0_0" slope="0.00"/>
        <vehicle id="background.2" x="70.69" y="-1.60" angle="90.00" type="human" speed="8.94" pos="70.69" lane="e0_0" slope="0.00"/>
        <vehicle id="ego" x="88.85" y="-1.60" angle="90.00" type="ego_glosa_type" speed="8.22" pos="88.85" lane="e0_0" slope="0.00"/>
    </timestep>
    <timestep time="68.00">
        <vehicle id="background.1" x="299.00" y="-1.60" angle="90.00" type="human" speed="0.00" pos="299.00" lane="e0_0" slope="0.00"/>
        <vehicle id="background.2" x="75.06" y="-1.60" angle="90.00" type="human" speed="8.73" pos="75.06" lane="e0_0" slope="0.00"/>
        <vehicle id="ego" x="92.96" y="-1.60" angle="90.00" type="ego_glosa_type" speed="8.22" pos="92.96" lane="e0_0" slope="0.00"/>
    </timestep>
    <timestep time="68.50">
        <vehicle id="background.1" x="299.00" y="-1.60" angle="90.00" type="human" speed="0.00" pos="299.00" lane="e0_0" slope="0.00"/>
        <vehicle id="background.2" x="79.39" y="-1.60" angle="90.00" type="human" speed="8.66" pos="79.39" lane="e0_0" slope="0.00"/>
        <vehicle id="ego" x="97.07" y="-1.60" angle="90.00" type="ego_glosa_type" speed="8.22" pos="97.07" lane="e0_0" slope="0.00"/>
    </timestep>
    <timestep time="69.00">
        <vehicle id="background.1" x="299.00" y="-1.60" angle="90.00" type="human" speed="0.00" pos="299.00" lane="e0_0" slope="0.00"/>
        <vehicle id="background.2" x="83.71" y="-1.60" angle="90.00" type="human" speed="8.65" pos="83.71" lane="e0_0" slope="0.00"/>
        <vehicle id="ego" x="101.18" y="-1.60" angle="90.00" type="ego_glosa_type" speed="8.22" pos="101.18" lane="e0_0" slope="0.00"/>
    </timestep>
    <timestep time="69.50">
        <vehicle id="background.1" x="299.00" y="-1.60" angle="90.00" type="human" speed="0.00" pos="299.00" lane="e0_0" slope="0.00"/>
        <vehicle id="background.2" x="88.01" y="-1.60" angle="90.00" type="human" speed="8.60" pos="88.01" lane="e0_0" slope="0.00"/>
        <vehicle id="ego" x="105.29" y="-1.60" angle="90.00" type="ego_glosa_type" speed="8.22" pos="105.29" lane="e0_0" slope="0.00"/>
    </timestep>
    <timestep time="70.00">
        <vehicle id="background.1" x="299.00" y="-1.60" angle="90.00" type="human" speed="0.00" pos="299.00" lane="e0_0" slope="0.00"/>
        <vehicle id="background.2" x="92.23" y="-1.60" angle="90.00" type="human" speed="8.43" pos="92.23" lane="e0_0" slope="0.00"/>
        <vehicle id="ego" x="109.40" y="-1.60" angle="90.00" type="ego_glosa_type" speed="8.22" pos="109.40" lane="e0_0" slope="0.00"/>
    </timestep>
    <timestep time="70.50">
        <vehicle id="background.1" x="299.00" y="-1.60" angle="90.00" type="human" speed="0.00" pos="299.00" lane="e0_0" slope="0.00"/>
        <vehicle id="background.2" x="96.47" y="-1.60" angle="90.00" type="human" speed="8.48" pos="96.47" lane="e0_0" slope="0.00"/>
        <vehicle id="ego" x="113.51" y="-1.60" angle="90.00" type="ego_glosa_type" speed="8.22" pos="113.51" lane="e0_0" slope="0.00"/>
    </timestep>
    <timestep time="71.00">
        <vehicle id="background.1" x="299.00" y="-1.60" angle="90.00" type="human" speed="0.00" pos="299.00" lane="e0_0" slope="0.00"/>
        <vehicle id="background.2" x="100.69" y="-1.60" angle="90.00" type="human" speed="8.45" pos="100.69" lane="e0_0" slope="0.00"/>
        <vehicle id="ego" x="117.61" y="-1.60" angle="90.00" type="ego_glosa_type" speed="8.22" pos="117.61" lane="e0_0" slope="0.00"/>
    </timestep>
    <timestep time="71.50">
        <vehicle id="background.1" x="299.00" y="-1.60" angle="90.00" type="human" speed="0.00" pos="299.00" lane="e0_0" slope="0.00"/>