<?xml version="1.0" encoding="UTF-8"?>

<!-- generated on 2026-05-14 17:05:39 by Eclipse SUMO sumo Version 1.24.0
<sumoConfiguration xmlns:xsi="http://www.w3.org/2001/XMLSchema-instance" xsi:noNamespaceSchemaLocation="http://sumo.dlr.de/xsd/sumoConfiguration.xsd">

    <input>
        <net-file value="scenarios/simple_arterial/simple_arterial.net.xml"/>
        <route-files value="scenarios/simple_arterial/simple_arterial_glosa.rou.xml"/>
        <additional-files value="scenarios/simple_arterial/simple_arterial.tls.xml"/>
    </input>

    <output>
        <fcd-output value="runs/fcd_expert_glosa/episode_00016_seed_58.fcd.xml"/>
    </output>

    <time>
        <begin value="0"/>
        <end value="900"/>
        <step-length value="0.5"/>
    </time>

    <report>
        <no-warnings value="true"/>
    </report>

    <traci_server>
        <remote-port value="37703"/>
    </traci_server>

    <random_number>
        <seed value="58"/>
    </random_number>

</sumoConfiguration>
-->

<fcd-export xmlns:xsi="http://www.w3.org/2001/XMLSchema-instance" xsi:noNamespaceSchemaLocation="http://sumo.dlr.de/xsd/fcd_file.xsd">
    <timestep time="0.00"/>
    <timestep time="0.50"/>
    <timestep time="1.00"/>
    <timestep time="1.50"/>
    <timestep time="2.00"/>
    <timestep time="2.50"/>
    <timestep time="3.00"/>
    <timestep time="3.50"/>
    <timestep time="4.00"/>
    <timestep time="4.50"/>
    <timestep time="5.00"/>
    <timestep time="5.50"/>
    <timestep time="6.00"/>
    <timestep time="6.50"/>
    <timestep time="7.00"/>
    <timestep time="7.50"/>
    <timestep time="8.00"/>
    <timestep time="8.50"/>
    <timestep time="9.00"/>
    <timestep time="9.50"/>
    <timestep time="10.00"/>
    <timestep time="10.50"/>
    <timestep time="11.00"/>
    <timestep time="11.50"/>
    <timestep time="12.00"/>
    <timestep time="12.50"/>
    <timestep time="13.00"/>
    <timestep time="13.50"/>
    <timestep time="14.00"/>
    <timestep time="14.50"/>
    <timestep time="15.00"/>
    <timestep time="15.50"/>
    <timestep time="16.00"/>
    <timestep time="16.50"/>
    <timestep time="17.00"/>
    <timestep time="17.50"/>
    <timestep time="18.00"/>
    <timestep time="18.50"/>
    <timestep time="19.00"/>
    <timestep time="19.50"/>
    <timestep time="20.00"/>
    <timestep time="20.50"/>
    <timestep time="21.00"/>
    <timestep time="21.50"/>
    <timestep time="22.00"/>
    <timestep time="22.50"/>
    <timestep time="23.00"/>
    <timestep time="23.50"/>
    <timestep time="24.00"/>
    <timestep time="24.50"/>
    <timestep time="25.00"/>
    <timestep time="25.50"/>
    <timestep time="26.00"/>
    <timestep time="26.50"/>
    <timestep time="27.00"/>
    <timestep time="27.50"/>
    <timestep time="28.00">
        <vehicle id="ego" x="5.10" y="-1.60" angle="90.00" type="ego_glosa_type" speed="0.00" pos="5.10" lane="e0_0" slope="0.00"/>
    </timestep>
    <timestep time="28.50">
        <vehicle id="ego" x="5.60" y="-1.60" angle="90.00" type="ego_glosa_type" speed="1.00" pos="5.60" lane="e0_0" slope="0.00"/>
    </timestep>
    <timestep time="29.00">
        <vehicle id="ego" x="6.60" y="-1.60" angle="90.00" type="ego_glosa_type" speed="2.00" pos="6.60" lane="e0_0" slope="0.00"/>
    </timestep>
    <timestep time="29.50">
        <vehicle id="ego" x="8.10" y="-1.60" angle="90.00" type="ego_glosa_type" speed="3.00" pos="8.10" lane="e0_0" slope="0.00"/>
    </timestep>
    <timestep time="30.00">
        <vehicle id="ego" x="10.10" y="-1.60" angle="90.00" type="ego_glosa_type" speed="4.00" pos="10.10" lane="e0_0" slope="0.00"/>
    </timestep>
    <timestep time="30.50">
        <vehicle id="background.0" x="5.10" y="-1.60" angle="90.00" type="human" speed="1.62" pos="5.10" lane="e0_0" slope="0.00"/>
        <vehicle id="ego" x="12.60" y="-1.60" angle="90.00" type="ego_glosa_type" speed="5.00" pos="12.60" lane="e0_0" slope="0.00"/>
    </timestep>
    <timestep time="31.00">
        <vehicle id="background.0" x="5.89" y="-1.60" angle="90.00" type="human" speed="1.59" pos="5.89" lane="e0_0" slope="0.00"/>
        <vehicle id="ego" x="15.60" y="-1.60" angle="90.00" type="ego_glosa_type" speed="6.00" pos="15.60" lane="e0_0" slope="0.00"/>
    </timestep>
    <timestep time="31.50">
        <vehicle id="background.0" x="7.05" y="-1.60" angle="90.00" type="human" speed="2.30" pos="7.05" lane="e0_0" slope="0.00"/>
        <vehicle id="ego" x="19.10" y="-1.60" angle="90.00" type="ego_glosa_type" speed="7.00" pos="19.10" lane="e0_0" slope="0.00"/>
    </timestep>
    <timestep time="32.00">
        <vehicle id="background.0" x="8.63" y="-1.60" angle="90.00" type="human" speed="3.16" pos="8.63" lane="e0_0" slope="0.00"/>
        <vehicle id="ego" x="23.10" y="-1.60" angle="90.00" type="ego_glosa_type" speed="8.00" pos="23.10" lane="e0_0" slope="0.00"/>
    </timestep>
    <timestep time="32.50">
        <vehicle id="background.0" x="10.64" y="-1.60" angle="90.00" type="human" speed="4.03" pos="10.64" lane="e0_0" slope="0.00"/>
        <vehicle id="ego" x="27.60" y="-1.60" angle="90.00" type="ego_glosa_type" speed="9.00" pos="27.60" lane="e0_0" slope="0.00"/>
    </timestep>
    <timestep time="33.00">
        <vehicle id="background.0" x="13.02" y="-1.60" angle="90.00" type="human" speed="4.75" pos="13.02" lane="e0_0" slope="0.00"/>
        <vehicle id="ego" x="32.60" y="-1.60" angle="90.00" type="ego_glosa_type" speed="10.00" pos="32.60" lane="e0_0" slope="0.00"/>
    </timestep>
    <timestep time="33.50">
        <vehicle id="background.0" x="15.84" y="-1.60" angle="90.00" type="human" speed="5.64" pos="15.84" lane="e0_0" slope="0.00"/>
        <vehicle id="ego" x="38.10" y="-1.60" angle="90.00" type="ego_glosa_type" speed="11.00" pos="38.10" lane="e0_0" slope="0.00"/>
    </timestep>
    <timestep time="34.00">
        <vehicle id="background.0" x="19.00" y="-1.60" angle="90.00" type="human" speed="6.32" pos="19.00" lane="e0_0" slope="0.00"/>
        <vehicle id="ego" x="44.10" y="-1.60" angle="90.00" type="ego_glosa_type" speed="12.00" pos="44.10" lane="e0_0" slope="0.00"/>
    </timestep>
    <timestep time="34.50">
        <vehicle id="background.0" x="22.50" y="-1.60" angle="90.00" type="human" speed="7.00" pos="22.50" lane="e0_0" slope="0.00"/>
        <vehicle id="ego" x="50.60" y="-1.60" angle="90.00" type="ego_glosa_type" speed="13.00" pos="50.60" lane="e0_0" slope="0.00"/>
    </timestep>
    <timestep time="35.00">
        <vehicle id="background.0" x="26.40" y="-1.60" angle="90.00" type="human" speed="7.80" pos="26.40" lane="e0_0" slope="0.00"/>
        <vehicle id="ego" x="57.25" y="-1.60" angle="90.00" type="ego_glosa_type" speed="13.29" pos="57.25" lane="e0_0" slope="0.00"/>
    </timestep>
    <timestep time="35.50">
        <vehicle id="background.0" x="30.70" y="-1.60" angle="90.00" type="human" speed="8.60" pos="30.70" lane="e0_0" slope="0.00"/>
        <vehicle id="ego" x="63.89" y="-1.60" angle="90.00" type="ego_glosa_type" speed="13.29" pos="63.89" lane="e0_0" slope="0.00"/>
    </timestep>
    <timestep time="36.00">
        <vehicle id="background.0" x="35.39" y="-1.60" angle="90.00" type="human" speed="9.37" pos="35.39" lane="e0_0" slope="0.00"/>
        <vehicle id="ego" x="70.54" y="-1.60" angle="90.00" type="ego_glosa_type" speed="13.29" pos="70.54" lane="e0_0" slope="0.00"/>
    </timestep>
    <timestep time="36.50">
        <vehicle id="background.0" x="40.51" y="-1.60" angle="90.00" type="human" speed="10.26" pos="40.51" lane="e0_0" slope="0.00"/>
        <vehicle id="ego" x="77.18" y="-1.60" angle="90.00" type="ego_glosa_type" speed="13.29" pos="77.18" lane="e0_0" slope="0.00"/>
    </timestep>
    <timestep time="37.00">
        <vehicle id="background.0" x="46.11" y="-1.60" angle="90.00" type="human" speed="11.19" pos="46.11" lane="e0_0" slope="0.00"/>
        <vehicle id="ego" x="83.83" y="-1.60" angle="90.00" type="ego_glosa_type" speed="13.29" pos="83.83" lane="e0_0" slope="0.00"/>
    </timestep>
    <timestep time="37.50">
        <vehicle id="background.0" x="52.18" y="-1.60" angle="90.00" type="human" speed="12.14" pos="52.18" lane="e0_0" slope="0.00"/>
        <vehicle id="ego" x="90.47" y="-1.60" angle="90.00" type="ego_glosa_type" speed="13.29" pos="90.47" lane="e0_0" slope="0.00"/>
    </timestep>
    <timestep time="38.00">
        <vehicle id="background.0" x="58.62" y="-1.60" angle="90.00" type="human" speed="12.90" pos="58.62" lane="e0_0" slope="0.00"/>
        <vehicle id="ego" x="97.12" y="-1.60" angle="90.00" type="ego_glosa_type" speed="13.29" pos="97.12" lane="e0_0" slope="0.00"/>
    </timestep>
    <timestep time="38.50">
        <vehicle id="background.0" x="65.24" y="-1.60" angle="90.00" type="human" speed="13.23" pos="65.24" lane="e0_0" slope="0.00"/>
        <vehicle id="ego" x="103.77" y="-1.60" angle="90.00" type="ego_glosa_type" speed="13.29" pos="103.77" lane="e0_0" slope="0.00"/>
    </timestep>
    <timestep time="39.00">
        <vehicle id="background.0" x="71.82" y="-1.60" angle="90.00" type="human" speed="13.15" pos="71.82" lane="e0_0" slope="0.00"/>
        <vehicle id="ego" x="110.41" y="-1.60" angle="90.00" type="ego_glosa_type" speed="13.29" pos="110.41" lane="e0_0" slope="0.00"/>
    </timestep>
    <timestep time="39.50">
        <vehicle id="background.0" x="78.25" y="-1.60" angle="90.00" type="human" speed="12.87" pos="78.25" lane="e0_0" slope="0.00"/>
        <vehicle id="ego" x="117.06" y="-1.60" angle="90.00" type="ego_glosa_type" speed="13.29" pos="117.06" lane="e0_0" slope="0.00"/>
    </timestep>
    <timestep time="40.00">
        <vehicle id="background.0" x="84.82" y="-1.60" angle="90.00" type="human" speed="13.13" pos="84.82" lane="e0_0" slope="0.00"/>
        <vehicle id="ego" x="123.70" y="-1.60" angle="90.00" type="ego_glosa_type" speed="13.29" pos="123.70" lane="e0_0" slope="0.00"/>
    </timestep>
    <timestep time="40.50">
        <vehicle id="background.0" x="91.45" y="-1.60" angle="90.00" type="human" speed="13.25" pos="91.45" lane="e0_0" slope="0.00"/>
        <vehicle id="ego" x="130.35" y="-1.60" angle="90.00" type="ego_glosa_type" speed="13.29" pos="130.35" lane="e0_0" slope="0.00"/>
    </timestep>
    <timestep time="41.00">
        <vehicle id="background.0" x="97.90" y="-1.60" angle="90.00" type="human" speed="12.91" pos="97.90" lane="e0_0" slope="0.00"/>
        <vehicle id="ego" x="136.99" y="-1.60" angle="90.00" type="ego_glosa_type" speed="13.29" pos="136.99" lane="e0_0" slope="0.00"/>
    </timestep>
    <timestep time="41.50">
        <vehicle id="background.0" x="104.48" y="-1.60" angle="90.00" type="human" speed="13.16" pos="104.48" lane="e0_0" slope="0.00"/>
        <vehicle id="ego" x="143.64" y="-1.60" angle="90.00" type="ego_glosa_type" speed="13.29" pos="143.64" lane="e0_0" slope="0.00"/>
    </timestep>
    <timestep time="42.00">
        <vehicle id="background.0" x="110.89" y="-1.60" angle="90.00" type="human" speed="12.82" pos="110.89" lane="e0_0" slope="0.00"/>
        <vehicle id="ego" x="150.29" y="-1.60" angle="90.00" type="ego_glosa_type" speed="13.29" pos="150.29" lane="e0_0" slope="0.00"/>
    </timestep>
    <timestep time="42.50">
        <vehicle id="background.0" x="117.34" y="-1.60" angle="90.00" type="human" speed="12.89" pos="117.34" lane="e0_0" slope="0.00"/>
        <vehicle id="ego" x="156.93" y="-1.60" angle="90.00" type="ego_glosa_type" speed="13.29" pos="156.93" lane="e0_0" slope="0.00"/>
    </timestep>
    <timestep time="43.00">
        <vehicle id="background.0" x="123.90" y="-1.60" angle="90.00" type="human" speed="13.12" pos="123.90" lane="e0_0" slope="0.00"/>
        <vehicle id="ego" x="163.58" y="-1.60" angle="90.00" type="ego_glosa_type" speed="13.29" pos="163.58" lane="e0_0" slope="0.00"/>
    </timestep>
    <timestep time="43.50">
        <vehicle id="background.0" x="130.42" y="-1.60" angle="90.00" type="human" speed="13.05" pos="130.42" lane="e0_0" slope="0.00"/>
        <vehicle id="ego" x="170.22" y="-1.60" angle="90.00" type="ego_glosa_type" speed="13.29" pos="170.22" lane="e0_0" slope="0.00"/>
    </timestep>
    <timestep time="44.00">
        <vehicle id="background.0" x="137.01" y="-1.60" angle="90.00" type="human" speed="13.18" pos="137.01" lane="e0_0" slope="0.00"/>
        <vehicle id="ego" x="176.87" y="-1.60" angle="90.00" type="ego_glosa_type" speed="13.29" pos="176.87" lane="e0_0" slope="0.00"/>
    </timestep>
    <timestep time="44.50">
        <vehicle id="background.0" x="143.55" y="-1.60" angle="90.00" type="human" speed="13.07" pos="143.55" lane="e0_0" slope="0.00"/>
        <vehicle id="ego" x="183.51" y="-1.60" angle="90.00" type="ego_glosa_type" speed="13.29" pos="183.51" lane="e0_0" slope="0.00"/>
    </timestep>
    <timestep time="45.00">
        <vehicle id="background.0" x="150.03" y="-1.60" angle="90.00" type="human" speed="12.97" pos="150.03" lane="e0_0" slope="0.00"/>
        <vehicle id="ego" x="190.16" y="-1.60" angle="90.00" type="ego_glosa_type" speed="13.29" pos="190.16" lane="e0_0" slope="0.00"/>
    </timestep>
    <timestep time="45.50">
        <vehicle id="background.0" x="156.44" y="-1.60" angle="90.00" type="human" speed="12.81" pos="156.44" lane="e0_0" slope="0.00"/>
        <vehicle id="ego" x="196.80" y="-1.60" angle="90.00" type="ego_glosa_type" speed="13.29" pos="196.80" lane="e0_0" slope="0.00"/>
    </timestep>
    <timestep time="46.00">
        <vehicle id="background.0" x="162.97" y="-1.60" angle="90.00" type="human" speed="13.07" pos="162.97" lane="e0_0" slope="0.00"/>
        <vehicle id="ego" x="203.45" y="-1.60" angle="90.00" type="ego_glosa_type" speed="13.29" pos="203.45" lane="e0_0" slope="0.00"/>
    </timestep>
    <timestep time="46.50">
        <vehicle id="background.0" x="169.51" y="-1.60" angle="90.00" type="human" speed="13.07" pos="169.51" lane="e0_0" slope="0.00"/>
        <vehicle id="ego" x="210.10" y="-1.60" angle="90.00" type="ego_glosa_type" speed="13.29" pos="210.10" lane="e0_0" slope="0.00"/>
    </timestep>
    <timestep time="47.00">
        <vehicle id="background.0" x="175.99" y="-1.60" angle="90.00" type="human" speed="12.97" pos="175.99" lane="e0_0" slope="0.00"/>
        <vehicle id="ego" x="216.74" y="-1.60" angle="90.00" type="ego_glosa_type" speed="13.29" pos="216.74" lane="e0_0" slope="0.00"/>
    </timestep>
    <timestep time="47.50">
        <vehicle id="background.0" x="182.41" y="-1.60" angle="90.00" type="human" speed="12.83" pos="182.41" lane="e0_0" slope="0.00"/>
        <vehicle id="ego" x="223.39" y="-1.60" angle="90.00" type="ego_glosa_type" speed="13.29" pos="223.39" lane="e0_0" slope="0.00"/>
    </timestep>
    <timestep time="48.00">
        <vehicle id="background.0" x="188.92" y="-1.60" angle="90.00" type="human" speed="13.01" pos="188.92" lane="e0_0" slope="0.00"/>
        <vehicle id="ego" x="230.03" y="-1.60" angle="90.00" type="ego_glosa_type" speed="13.29" pos="230.03" lane="e0_0" slope="0.00"/>
    </timestep>
    <timestep time="48.50">
        <vehicle id="background.0" x="195.43" y="-1.60" angle="90.00" type="human" speed="13.02" pos="195.43" lane="e0_0" slope="0.00"/>
        <vehicle id="ego" x="236.68" y="-1.60" angle="90.00" type="ego_glosa_type" speed="13.29" pos="236.68" lane="e0_0" slope="0.00"/>
    </timestep>
    <timestep time="49.00">
        <vehicle id="background.0" x="201.97" y="-1.60" angle="90.00" type="human" speed="13.07" pos="201.97" lane="e0_0" slope="0.00"/>
        <vehicle id="ego" x="243.32" y="-1.60" angle="90.00" type="ego_glosa_type" speed="13.29" pos="243.32" lane="e0_0" slope="0.00"/>
    </timestep>
    <timestep time="49.50">
        <vehicle id="background.0" x="208.58" y="-1.60" angle="90.00" type="human" speed="13.22" pos="208.58" lane="e0_0" slope="0.00"/>
        <vehicle id="ego" x="249.97" y="-1.60" angle="90.00" type="ego_glosa_type" speed="13.29" pos="249.97" lane="e0_0" slope="0.00"/>
    </timestep>
    <timestep time="50.00">
        <vehicle id="background.0" x="214.99" y="-1.60" angle="90.00" type="human" speed="12.82" pos="214.99" lane="e0_0" slope="0.00"/>
        <vehicle id="ego" x="256.62" y="-1.60" angle="90.00" type="ego_glosa_type" speed="13.29" pos="256.62" lane="e0_0" slope="0.00"/>
    </timestep>
    <timestep time="50.50">
        <vehicle id="background.0" x="221.47" y="-1.60" angle="90.00" type="human" speed="12.97" pos="221.47" lane="e0_0" slope="0.00"/>
        <vehicle id="ego" x="263.26" y="-1.60" angle="90.00" type="ego_glosa_type" speed="13.29" pos="263.26" lane="e0_0" slope="0.00"/>
    </timestep>
    <timestep time="51.00">
        <vehicle id="background.0" x="227.88" y="-1.60" angle="90.00" type="human" speed="12.82" pos="227.88" lane="e0_0" slope="0.00"/>
        <vehicle id="ego" x="269.91" y="-1.60" angle="90.00" type="ego_glosa_type" speed="13.29" pos="269.91" lane="e0_0" slope="0.00"/>
    </timestep>
    <timestep time="51.50">
        <vehicle id="background.0" x="234.42" y="-1.60" angle="90.00" type="human" speed="13.06" pos="234.42" lane="e0_0" slope="0.00"/>
        <vehicle id="ego" x="276.55" y="-1.60" angle="90.00" type="ego_glosa_type" speed="13.29" pos="276.55" lane="e0_0" slope="0.00"/>
    </timestep>
    <timestep time="52.00">
        <vehicle id="background.0" x="240.96" y="-1.60" angle="90.00" type="human" speed="13.10" pos="240.96" lane="e0_0" slope="0.00"/>
        <vehicle id="ego" x="283.11" y="-1.60" angle="90.00" type="ego_glosa_type" speed="13.11" pos="283.11" lane="e0_0" slope="0.00"/>
    </timestep>
    <timestep time="52.50">
        <vehicle id="background.0" x="247.46" y="-1.60" angle="90.00" type="human" speed="12.98" pos="247.46" lane="e0_0" slope="0.00"/>
        <vehicle id="ego" x="288.53" y="-1.60" angle="90.00" type="ego_glosa_type" speed="10.86" pos="288.53" lane="e0_0" slope="0.00"/>
    </timestep>
    <timestep time="53.00">
        <vehicle id="background.0" x="253.93" y="-1.60" angle="90.00" type="human" speed="12.96" pos="253.93" lane="e0_0" slope="0.00"/>
        <vehicle id="ego" x="292.84" y="-1.60" angle="90.00" type="ego_glosa_type" speed="8.61" pos="292.84" lane="e0_0" slope="0.00"/>
    </timestep>
    <timestep time="53.50">
        <vehicle id="background.0" x="260.39" y="-1.60" angle="90.00" type="human" speed="12.91" pos="260.39" lane="e0_0" slope="0.00"/>
        <vehicle id="ego" x="296.02" y="-1.60" angle="90.00" type="ego_glosa_type" speed="6.36" pos="296.02" lane="e0_0" slope="0.00"/>
    </timestep>
    <timestep time="54.00">
        <vehicle id="background.0" x="266.96" y="-1.60" angle="90.00" type="human" speed="13.14" pos="266.96" lane="e0_0" slope="0.00"/>
        <vehicle id="ego" x="298.07" y="-1.60" angle="90.00" type="ego_glosa_type" speed="4.11" pos="298.07" lane="e0_0" slope="0.00"/>
    </timestep>
    <timestep time="54.50">
        <vehicle id="background.0" x="272.80" y="-1.60" angle="90.00" type="human" speed="11.69" pos="272.80" lane="e0_0" slope="0.00"/>
        <vehicle id="ego" x="299.00" y="-1.60" angle="90.00" type="ego_glosa_type" speed="1.86" pos="299.00" lane="e0_0" slope="0.00"/>
    </timestep>
    <timestep time="55.00">
        <vehicle id="background.0" x="277.74" y="-1.60" angle="90.00" type="human" speed="9.88" pos="277.74" lane="e0_0" slope="0.00"/>
        <vehicle id="background.1" x="5.10" y="-1.60" angle="90.00" type="human" speed="13.72" pos="5.10" lane="e0_0" slope="0.00"/>
        <vehicle id="ego" x="299.00" y="-1.60" angle="90.00" type="ego_glosa_type" speed="0.00" pos="299.00" lane="e0_0" slope="0.00"/>
    </timestep>
    <timestep time="55.50">
        <vehicle id="background.0" x="281.77" y="-1.60" angle="90.00" type="human" speed="8.06" pos="281.77" lane="e0_0" slope="0.00"/>
        <vehicle id="background.1" x="11.80" y="-1.60" angle="90.00" type="human" speed="13.40" pos="11.80" lane="e0_0" slope="0.00"/>
        <vehicle id="ego" x="299.00" y="-1.60" angle="90.00" type="ego_glosa_type" speed="0.00" pos="299.00" lane="e0_0" slope="0.00"/>
    </timestep>
    <timestep time="56.00">
        <vehicle id="background.0" x="284.81" y="-1.60" angle="90.00" type="human" speed="6.08" pos="284.81" lane="e0_0" slope="0.00"/>
        <vehicle id="background.1" x="18.43" y="-1.60" angle="90.00" type="human" speed="13.26" pos="18.43" lane="e0_0" slope="0.00"/>
        <vehicle id="ego" x="299.00" y="-1.60" angle="90.00" type="ego_glosa_type" speed="0.00" pos="299.00" lane="e0_0" slope="0.00"/>
    </timestep>
    <timestep time="56.50">
        <vehicle id="background.0" x="287.24" y="-1.60" angle="90.00" type="human" speed="4.86" pos="287.24" lane="e0_0" slope="0.00"/>
        <vehicle id="background.1" x="25.13" y="-1.60" angle="90.00" type="human" speed="13.39" pos="25.13" lane="e0_0" slope="0.00"/>
        <vehicle id="ego" x="299.00" y="-1.60" angle="90.00" type="ego_glosa_type" speed="0.00" pos="299.00" lane="e0_0" slope="0.00"/>
    </timestep>
    <timestep time="57.00">
        <vehicle id="background.0" x="288.93" y="-1.60" angle="90.00" type="human" speed="3.38" pos="288.93" lane="e0_0" slope="0.00"/>
        <vehicle id="background.1" x="31.83" y="-1.60" angle="90.00" type="human" speed="13.40" pos="31.83" lane="e0_0" slope="0.00"/>
        <vehicle id="ego" x="299.00" y="-1.60" angle="90.00" type="ego_glosa_type" speed="0.00" pos="299.00" lane="e0_0" slope="0.00"/>
    </timestep>
    <timestep time="57.50">
        <vehicle id="background.0" x="290.15" y="-1.60" angle="90.00" type="human" speed="2.44" pos="290.15" lane="e0_0" slope="0.00"/>
        <vehicle id="background.1" x="38.62" y="-1.60" angle="90.00" type="human" speed="13.58" pos="38.62" lane="e0_0" slope="0.00"/>
        <vehicle id="ego" x="299.00" y="-1.60" angle="90.00" type="ego_glosa_type" speed="0.00" pos="299.00" lane="e0_0" slope="0.00"/>
    </timestep>
    <timestep time="58.00">
        <vehicle id="background.0" x="290.76" y="-1.60" angle="90.00" type="human" speed="1.22" pos="290.76" lane="e0_0" slope="0.00"/>
        <vehicle id="background.1" x="45.47" y="-1.60" angle="90.00" type="human" speed="13.71" pos="45.47" lane="e0_0" slope="0.00"/>
        <vehicle id="background.2" x="5.10" y="-1.60" angle="90.00" type="human" speed="13.88" pos="5.10" lane="e0_0" slope="0.00"/>
        <vehicle id="ego" x="299.00" y="-1.60" angle="90.00" type="ego_glosa_type" speed="0.00" pos="299.00" lane="e0_0" slope="0.00"/>
    </timestep>
    <timestep time="58.50">
        <vehicle id="background.0" x="291.06" y="-1.60" angle="90.00" type="human" speed="0.59" pos="291.06" lane="e0_0" slope="0.00"/>
        <vehicle id="background.1" x="52.16" y="-1.60" angle="90.00" type="human" speed="13.37" pos="52.16" lane="e0_0" slope="0.00"/>
        <vehicle id="background.2" x="11.97" y="-1.60" angle="90.00" type="human" speed="13.74" pos="11.97" lane="e0_0" slope="0.00"/>
        <vehicle id="ego" x="299.00" y="-1.60" angle="90.00" type="ego_glosa_type" speed="0.00" pos="299.00" lane="e0_0" slope="0.00"/>
    </timestep>
    <timestep time="59.00">
        <vehicle id="background.0" x="291.25" y="-1.60" angle="90.00" type="human" speed="0.39" pos="291.25" lane="e0_0" slope="0.00"/>
        <vehicle id="background.1" x="58.91" y="-1.60" angle="90.00" type="human" speed="13.50" pos="58.91" lane="e0_0" slope="0.00"/>
        <vehicle id="background.2" x="18.68" y="-1.60" angle="90.00" type="human" speed="13.42" pos="18.68" lane="e0_0" slope="0.00"/>
        <vehicle id="ego" x="299.00" y="-1.60" angle="90.00" type="ego_glosa_type" speed="0.00" pos="299.00" lane="e0_0" slope="0.00"/>
    </timestep>
    <timestep time="59.50">
        <vehicle id="background.0" x="291.36" y="-1.60" angle="90.00" type="human" speed="0.21" pos="291.36" lane="e0_0" slope="0.00"/>
        <vehicle id="background.1" x="65.58" y="-1.60" angle="90.00" type="human" speed="13.33" pos="65.58" lane="e0_0" slope="0.00"/>
        <vehicle id="background.2" x="25.40" y="-1.60" angle="90.00" type="human" speed="13.43" pos="25.40" lane="e0_0" slope="0.00"/>
        <vehicle id="ego" x="299.00" y="-1.60" angle="90.00" type="ego_glosa_type" speed="0.00" pos="299.00" lane="e0_0" slope="0.00"/>
    </timestep>
    <timestep time="60.00">
        <vehicle id="background.0" x="291.42" y="-1.60" angle="90.00" type="human" speed="0.13" pos="291.42" lane="e0_0" slope="0.00"/>
        <vehicle id="background.1" x="72.41" y="-1.60" angle="90.00" type="human" speed="13.67" pos="72.41" lane="e0_0" slope="0.00"/>
        <vehicle id="background.2" x="32.19" y="-1.60" angle="90.00" type="human" speed="13.59" pos="32.19" lane="e0_0" slope="0.00"/>
        <vehicle id="background.3" x="5.10" y="-1.60" angle="90.00" type="human" speed="13.89" pos="5.10" lane="e0_0" slope="0.00"/>
        <vehicle id="ego" x="299.00" y="-1.60" angle="90.00" type="ego_glosa_type" speed="0.00" pos="299.00" lane="e0_0" slope="0.00"/>
    </timestep>
    <timestep time="60.50">
        <vehicle id="background.0" x="291.45" y="-1.60" angle="90.00" type="human" speed="0.06" pos="291.45" lane="e0_0" slope="0.00"/>
        <vehicle id="background.1" x="79.15" y="-1.60" angle="90.00" type="human" speed="13.47" pos="79.15" lane="e0_0" slope="0.00"/>
        <vehicle id="background.2" x="39.09" y="-1.60" angle="90.00" type="human" speed="13.80" pos="39.09" lane="e0_0" slope="0.00"/>
        <vehicle id="background.3" x="11.88" y="-1.60" angle="90.00" type="human" speed="13.56" pos="11.88" lane="e0_0" slope="0.00"/>
        <vehicle id="ego" x="299.00" y="-1.60" angle="90.00" type="ego_glosa_type" speed="0.00" pos="299.00" lane="e0_0" slope="0.00"/>
    </timestep>
    <timestep time="61.00">
        <vehicle id="background.0" x="291.47" y="-1.60" angle="90.00" type="human" speed="0.04" pos="291.47" lane="e0_0" slope="0.00"/>
        <vehicle id="background.1" x="85.96" y="-1.60" angle="90.00" type="human" speed="13.63" pos="85.96" lane="e0_0" slope="0.00"/>
        <vehicle id="background.2" x="45.81" y="-1.60" angle="90.00" type="human" speed="13.44" pos="45.81" lane="e0_0" slope="0.00"/>
        <vehicle id="background.3" x="18.67" y="-1.60" angle="90.00" type="human" speed="13.57" pos="18.67" lane="e0_0" slope="0.00"/>
        <vehicle id="ego" x="299.00" y="-1.60" angle="90.00" type="ego_glosa_type" speed="0.00" pos="299.00" lane="e0_0" slope="0.00"/>
    </timestep>
    <timestep time="61.50">
        <vehicle id="background.0" x="291.48" y="-1.60" angle="90.00" type="human" speed="0.02" pos="291.48" lane="e0_0" slope="0.00"/>
        <vehicle id="background.1" x="92.77" y="-1.60" angle="90.00" type="human" speed="13.61" pos="92.77" lane="e0_0" slope="0.00"/>
        <vehicle id="background.2" x="52.57" y="-1.60" angle="90.00" type="human" speed="13.52" pos="52.57" lane="e0_0" slope="0.00"/>
        <vehicle id="background.3" x="25.50" y="-1.60" angle="90.00" type="human" speed="13.66" pos="25.50" lane="e0_0" slope="0.00"/>
        <vehicle id="ego" x="299.00" y="-1.60" angle="90.00" type="ego_glosa_type" speed="0.00" pos="299.00" lane="e0_0" slope="0.00"/>
    </timestep>
    <timestep time="62.00">
        <vehicle id="background.0" x="291.49" y="-1.60" angle="90.00" type="human" speed="0.01" pos="291.49" lane="e0_0" slope="0.00"/>
        <vehicle id="background.1" x="99.40" y="-1.60" angle="90.00" type="human" speed="13.27" pos="99.40" lane="e0_0" slope="0.00"/>
        <vehicle id="background.2" x="59.40" y="-1.60" angle="90.00" type="human" speed="13.66" pos="59.40" lane="e0_0" slope="0.00"/>
        <vehicle id="background.3" x="32.25" y="-1.60" angle="90.00" type="human" speed="13.50" pos="32.25" lane="e0_0" slope="0.00"/>
        <vehicle id="ego" x="299.00" y="-1.60" angle="90.00" type="ego_glosa_type" speed="0.00" pos="299.00" lane="e0_0" slope="0.00"/>
    </timestep>
    <timestep time="62.50">
        <vehicle id="background.0" x="291.49" y="-1.60" angle="90.00" type="human" speed="0.01" pos="291.49" lane="e0_0" slope="0.00"/>
        <vehicle id="background.1" x="106.19" y="-1.60" angle="90.00" type="human" speed="13.57" pos="106.19" lane="e0_0" slope="0.00"/>
        <vehicle id="background.2" x="66.28" y="-1.60" angle="90.00" type="human" speed="13.77" pos="66.28" lane="e0_0" slope="0.00"/>
        <vehicle id="background.3" x="39.06" y="-1.60" angle="90.00" type="human" speed="13.63" pos="39.06" lane="e0_0" slope="0.00"/>
        <vehicle id="ego" x="299.00" y="-1.60" angle="90.00" type="ego_glosa_type" speed="0.00" pos="299.00" lane="e0_0" slope="0.00"/>
    </timestep>
    <timestep time="63.00">
        <vehicle id="background.0" x="291.50" y="-1.60" angle="90.00" type="human" speed="0.00" pos="291.50" lane="e0_0" slope="0.00"/>
        <vehicle id="background.1" x="112.96" y="-1.60" angle="90.00" type="human" speed="13.54" pos="112.96" lane="e0_0" slope="0.00"/>
        <vehicle id="background.2" x="73.05" y="-1.60" angle="90.00" type="human" speed="13.53" pos="73.05" lane="e0_0" slope="0.00"/>
        <vehicle id="background.3" x="45.94" y="-1.60" angle="90.00" type="human" speed="13.76" pos="45.94" lane="e0_0" slope="0.00"/>
        <vehicle id="ego" x="299.00" y="-1.60" angle="90.00" type="ego_glosa_type" speed="0.00" pos="299.00" lane="e0_0" slope="0.00"/>
    </timestep>
    <timestep time="63.50">
        <vehicle id="background.0" x="291.50" y="-1.60" angle="90.00" type="human" speed="0.00" pos="291.50" lane="e0_0" slope="0.00"/>
        <vehicle id="background.1" x="119.64" y="-1.60" angle="90.00" type="human" speed="13.36" pos="119.64" lane="e0_0" slope="0.00"/>
        <vehicle id="background.2" x="79.80" y="-1.60" angle="90.00" type="human" speed="13.50" pos="79.80" lane="e0_0" slope="0.00"/>
        <vehicle id="background.3" x="52.64" y="-1.60" angle="90.00" type="human" speed="13.40" pos="52.64" lane="e0_0" slope="0.00"/>
        <vehicle id="ego" x="299.00" y="-1.60" angle="90.00" type="ego_glosa_type" speed="0.00" pos="299.00" lane="e0_0" slope="0.00"/>
    </timestep>
    <timestep time="64.00">