<?xml version="1.0" encoding="UTF-8"?>

<!-- generated on 2026-05-13 21:24:27 by Eclipse SUMO sumo Version 1.24.0
<sumoConfiguration xmlns:xsi="http://www.w3.org/2001/XMLSchema-instance" xsi:noNamespaceSchemaLocation="http://sumo.dlr.de/xsd/sumoConfiguration.xsd">

    <input>
        <net-file value="scenarios/simple_arterial/simple_arterial.net.xml"/>
        <route-files value="scenarios/simple_arterial/simple_arterial_glosa.rou.xml"/>
        <additional-files value="scenarios/simple_arterial/simple_arterial.tls.xml"/>
    </input>

    <output>
        <fcd-output value="runs/fcd_expert_glosa/episode_00017_seed_59.fcd.xml"/>
    </output>

    <time>
        <begin value="0"/>
        <end value="900"/>
        <step-length value="0.5"/>
    </time>

    <report>
        <no-warnings value="true"/>
    </report>

    <traci_server>
        <remote-port value="27311"/>
    </traci_server>

    <random_number>
        <seed value="59"/>
    </random_number>

</sumoConfiguration>
-->

<fcd-export xmlns:xsi="http://www.w3.org/2001/XMLSchema-instance" xsi:noNamespaceSchemaLocation="http://sumo.dlr.de/xsd/fcd_file.xsd">
    <timestep time="0.00"/>
    <timestep time="0.50"/>
    <timestep time="1.00"/>
    <timestep time="1.50"/>
    <timestep time="2.00"/>
    <timestep time="2.50"/>
    <timestep time="3.00"/>
    <timestep time="3.50"/>
    <timestep time="4.00"/>
    <timestep time="4.50"/>
    <timestep time="5.00"/>
    <timestep time="5.50"/>
    <timestep time="6.00"/>
    <timestep time="6.50"/>
    <timestep time="7.00"/>
    <timestep time="7.50"/>
    <timestep time="8.00"/>
    <timestep time="8.50"/>
    <timestep time="9.00"/>
    <timestep time="9.50"/>
    <timestep time="10.00"/>
    <timestep time="10.50"/>
    <timestep time="11.00"/>
    <timestep time="11.50"/>
    <timestep time="12.00"/>
    <timestep time="12.50"/>
    <timestep time="13.00"/>
    <timestep time="13.50"/>
    <timestep time="14.00"/>
    <timestep time="14.50"/>
    <timestep time="15.00"/>
    <timestep time="15.50"/>
    <timestep time="16.00"/>
    <timestep time="16.50"/>
    <timestep time="17.00"/>
    <timestep time="17.50"/>
    <timestep time="18.00"/>
    <timestep time="18.50"/>
    <timestep time="19.00"/>
    <timestep time="19.50"/>
    <timestep time="20.00"/>
    <timestep time="20.50"/>
    <timestep time="21.00"/>
    <timestep time="21.50"/>
    <timestep time="22.00"/>
    <timestep time="22.50"/>
    <timestep time="23.00"/>
    <timestep time="23.50"/>
    <timestep time="24.00"/>
    <timestep time="24.50"/>
    <timestep time="25.00"/>
    <timestep time="25.50"/>
    <timestep time="26.00"/>
    <timestep time="26.50"/>
    <timestep time="27.00"/>
    <timestep time="27.50"/>
    <timestep time="28.00"/>
    <timestep time="28.50"/>
    <timestep time="29.00"/>
    <timestep time="29.50"/>
    <timestep time="30.00"/>
    <timestep time="30.50"/>
    <timestep time="31.00"/>
    <timestep time="31.50"/>
    <timestep time="32.00"/>
    <timestep time="32.50"/>
    <timestep time="33.00"/>
    <timestep time="33.50"/>
    <timestep time="34.00"/>
    <timestep time="34.50"/>
    <timestep time="35.00"/>
    <timestep time="35.50"/>
    <timestep time="36.00"/>
    <timestep time="36.50"/>
    <timestep time="37.00"/>
    <timestep time="37.50"/>
    <timestep time="38.00"/>
    <timestep time="38.50"/>
    <timestep time="39.00"/>
    <timestep time="39.50"/>
    <timestep time="40.00"/>
    <timestep time="40.50"/>
    <timestep time="41.00"/>
    <timestep time="41.50"/>
    <timestep time="42.00"/>
    <timestep time="42.50"/>
    <timestep time="43.00"/>
    <timestep time="43.50"/>
    <timestep time="44.00"/>
    <timestep time="44.50"/>
    <timestep time="45.00"/>
    <timestep time="45.50"/>
    <timestep time="46.00"/>
    <timestep time="46.50"/>
    <timestep time="47.00"/>
    <timestep time="47.50"/>
    <timestep time="48.00"/>
    <timestep time="48.50"/>
    <timestep time="49.00"/>
    <timestep time="49.50"/>
    <timestep time="50.00"/>
    <timestep time="50.50"/>
    <timestep time="51.00"/>
    <timestep time="51.50"/>
    <timestep time="52.00"/>
    <timestep time="52.50"/>
    <timestep time="53.00">
        <vehicle id="ego" x="5.10" y="-1.60" angle="90.00" type="ego_glosa_type" speed="0.00" pos="5.10" lane="e0_0" slope="0.00"/>
    </timestep>
    <timestep time="53.50">
        <vehicle id="ego" x="5.60" y="-1.60" angle="90.00" type="ego_glosa_type" speed="1.00" pos="5.60" lane="e0_0" slope="0.00"/>
    </timestep>
    <timestep time="54.00">
        <vehicle id="ego" x="6.60" y="-1.60" angle="90.00" type="ego_glosa_type" speed="2.00" pos="6.60" lane="e0_0" slope="0.00"/>
    </timestep>
    <timestep time="54.50">
        <vehicle id="ego" x="8.10" y="-1.60" angle="90.00" type="ego_glosa_type" speed="3.00" pos="8.10" lane="e0_0" slope="0.00"/>
    </timestep>
    <timestep time="55.00">
        <vehicle id="ego" x="10.10" y="-1.60" angle="90.00" type="ego_glosa_type" speed="4.00" pos="10.10" lane="e0_0" slope="0.00"/>
    </timestep>
    <timestep time="55.50">
        <vehicle id="ego" x="12.60" y="-1.60" angle="90.00" type="ego_glosa_type" speed="5.00" pos="12.60" lane="e0_0" slope="0.00"/>
    </timestep>
    <timestep time="56.00">
        <vehicle id="ego" x="15.60" y="-1.60" angle="90.00" type="ego_glosa_type" speed="6.00" pos="15.60" lane="e0_0" slope="0.00"/>
    </timestep>
    <timestep time="56.50">
        <vehicle id="ego" x="19.10" y="-1.60" angle="90.00" type="ego_glosa_type" speed="7.00" pos="19.10" lane="e0_0" slope="0.00"/>
    </timestep>
    <timestep time="57.00">
        <vehicle id="ego" x="22.98" y="-1.60" angle="90.00" type="ego_glosa_type" speed="7.75" pos="22.98" lane="e0_0" slope="0.00"/>
    </timestep>
    <timestep time="57.50">
        <vehicle id="ego" x="26.85" y="-1.60" angle="90.00" type="ego_glosa_type" speed="7.76" pos="26.85" lane="e0_0" slope="0.00"/>
    </timestep>
    <timestep time="58.00">
        <vehicle id="ego" x="30.73" y="-1.60" angle="90.00" type="ego_glosa_type" speed="7.76" pos="30.73" lane="e0_0" slope="0.00"/>
    </timestep>
    <timestep time="58.50">
        <vehicle id="ego" x="34.61" y="-1.60" angle="90.00" type="ego_glosa_type" speed="7.76" pos="34.61" lane="e0_0" slope="0.00"/>
    </timestep>
    <timestep time="59.00">
        <vehicle id="ego" x="38.49" y="-1.60" angle="90.00" type="ego_glosa_type" speed="7.76" pos="38.49" lane="e0_0" slope="0.00"/>
    </timestep>
    <timestep time="59.50">
        <vehicle id="ego" x="42.37" y="-1.60" angle="90.00" type="ego_glosa_type" speed="7.76" pos="42.37" lane="e0_0" slope="0.00"/>
    </timestep>
    <timestep time="60.00">
        <vehicle id="background.0" x="5.10" y="-1.60" angle="90.00" type="human" speed="12.47" pos="5.10" lane="e0_0" slope="0.00"/>
        <vehicle id="ego" x="46.25" y="-1.60" angle="90.00" type="ego_glosa_type" speed="7.76" pos="46.25" lane="e0_0" slope="0.00"/>
    </timestep>
    <timestep time="60.50">
        <vehicle id="background.0" x="11.16" y="-1.60" angle="90.00" type="human" speed="12.12" pos="11.16" lane="e0_0" slope="0.00"/>
        <vehicle id="ego" x="50.12" y="-1.60" angle="90.00" type="ego_glosa_type" speed="7.76" pos="50.12" lane="e0_0" slope="0.00"/>
    </timestep>
    <timestep time="61.00">
        <vehicle id="background.0" x="17.17" y="-1.60" angle="90.00" type="human" speed="12.02" pos="17.17" lane="e0_0" slope="0.00"/>
        <vehicle id="ego" x="54.00" y="-1.60" angle="90.00" type="ego_glosa_type" speed="7.76" pos="54.00" lane="e0_0" slope="0.00"/>
    </timestep>
    <timestep time="61.50">
        <vehicle id="background.0" x="23.19" y="-1.60" angle="90.00" type="human" speed="12.04" pos="23.19" lane="e0_0" slope="0.00"/>
        <vehicle id="ego" x="57.88" y="-1.60" angle="90.00" type="ego_glosa_type" speed="7.76" pos="57.88" lane="e0_0" slope="0.00"/>
    </timestep>
    <timestep time="62.00">
        <vehicle id="background.0" x="29.37" y="-1.60" angle="90.00" type="human" speed="12.38" pos="29.37" lane="e0_0" slope="0.00"/>
        <vehicle id="ego" x="61.76" y="-1.60" angle="90.00" type="ego_glosa_type" speed="7.76" pos="61.76" lane="e0_0" slope="0.00"/>
    </timestep>
    <timestep time="62.50">
        <vehicle id="background.0" x="35.48" y="-1.60" angle="90.00" type="human" speed="12.20" pos="35.48" lane="e0_0" slope="0.00"/>
        <vehicle id="ego" x="65.64" y="-1.60" angle="90.00" type="ego_glosa_type" speed="7.76" pos="65.64" lane="e0_0" slope="0.00"/>
    </timestep>
    <timestep time="63.00">
        <vehicle id="background.0" x="41.47" y="-1.60" angle="90.00" type="human" speed="11.98" pos="41.47" lane="e0_0" slope="0.00"/>
        <vehicle id="ego" x="69.51" y="-1.60" angle="90.00" type="ego_glosa_type" speed="7.76" pos="69.51" lane="e0_0" slope="0.00"/>
    </timestep>
    <timestep time="63.50">
        <vehicle id="background.0" x="47.41" y="-1.60" angle="90.00" type="human" speed="11.89" pos="47.41" lane="e0_0" slope="0.00"/>
        <vehicle id="ego" x="73.39" y="-1.60" angle="90.00" type="ego_glosa_type" speed="7.76" pos="73.39" lane="e0_0" slope="0.00"/>
    </timestep>
    <timestep time="64.00">
        <vehicle id="background.0" x="53.05" y="-1.60" angle="90.00" type="human" speed="11.28" pos="53.05" lane="e0_0" slope="0.00"/>
        <vehicle id="ego" x="77.27" y="-1.60" angle="90.00" type="ego_glosa_type" speed="7.76" pos="77.27" lane="e0_0" slope="0.00"/>
    </timestep>
    <timestep time="64.50">
        <vehicle id="background.0" x="58.30" y="-1.60" angle="90.00" type="human" speed="10.50" pos="58.30" lane="e0_0" slope="0.00"/>
        <vehicle id="ego" x="81.15" y="-1.60" angle="90.00" type="ego_glosa_type" speed="7.76" pos="81.15" lane="e0_0" slope="0.00"/>
    </timestep>
    <timestep time="65.00">
        <vehicle id="background.0" x="63.50" y="-1.60" angle="90.00" type="human" speed="10.40" pos="63.50" lane="e0_0" slope="0.00"/>
        <vehicle id="ego" x="85.03" y="-1.60" angle="90.00" type="ego_glosa_type" speed="7.76" pos="85.03" lane="e0_0" slope="0.00"/>
    </timestep>
    <timestep time="65.50">
        <vehicle id="background.0" x="68.51" y="-1.60" angle="90.00" type="human" speed="10.03" pos="68.51" lane="e0_0" slope="0.00"/>
        <vehicle id="ego" x="88.91" y="-1.60" angle="90.00" type="ego_glosa_type" speed="7.76" pos="88.91" lane="e0_0" slope="0.00"/>
    </timestep>
    <timestep time="66.00">
        <vehicle id="background.0" x="73.27" y="-1.60" angle="90.00" type="human" speed="9.51" pos="73.27" lane="e0_0" slope="0.00"/>
        <vehicle id="ego" x="92.78" y="-1.60" angle="90.00" type="ego_glosa_type" speed="7.76" pos="92.78" lane="e0_0" slope="0.00"/>
    </timestep>
    <timestep time="66.50">
        <vehicle id="background.0" x="77.72" y="-1.60" angle="90.00" type="human" speed="8.91" pos="77.72" lane="e0_0" slope="0.00"/>
        <vehicle id="ego" x="96.66" y="-1.60" angle="90.00" type="ego_glosa_type" speed="7.76" pos="96.66" lane="e0_0" slope="0.00"/>
    </timestep>
    <timestep time="67.00">
        <vehicle id="background.0" x="82.19" y="-1.60" angle="90.00" type="human" speed="8.94" pos="82.19" lane="e0_0" slope="0.00"/>
        <vehicle id="ego" x="100.54" y="-1.60" angle="90.00" type="ego_glosa_type" speed="7.76" pos="100.54" lane="e0_0" slope="0.00"/>
    </timestep>
    <timestep time="67.50">
        <vehicle id="background.0" x="86.59" y="-1.60" angle="90.00" type="human" speed="8.79" pos="86.59" lane="e0_0" slope="0.00"/>
        <vehicle id="ego" x="104.42" y="-1.60" angle="90.00" type="ego_glosa_type" speed="7.76" pos="104.42" lane="e0_0" slope="0.00"/>
    </timestep>
    <timestep time="68.00">
        <vehicle id="background.0" x="90.94" y="-1.60" angle="90.00" type="human" speed="8.72" pos="90.94" lane="e0_0" slope="0.00"/>
        <vehicle id="ego" x="108.30" y="-1.60" angle="90.00" type="ego_glosa_type" speed="7.76" pos="108.30" lane="e0_0" slope="0.00"/>
    </timestep>
    <timestep time="68.50">
        <vehicle id="background.0" x="95.11" y="-1.60" angle="90.00" type="human" speed="8.34" pos="95.11" lane="e0_0" slope="0.00"/>
        <vehicle id="ego" x="112.17" y="-1.60" angle="90.00" type="ego_glosa_type" speed="7.76" pos="112.17" lane="e0_0" slope="0.00"/>
    </timestep>
    <timestep time="69.00">
        <vehicle id="background.0" x="99.34" y="-1.60" angle="90.00" type="human" speed="8.45" pos="99.34" lane="e0_0" slope="0.00"/>
        <vehicle id="ego" x="116.05" y="-1.60" angle="90.00" type="ego_glosa_type" speed="7.76" pos="116.05" lane="e0_0" slope="0.00"/>
    </timestep>
    <timestep time="69.50">
        <vehicle id="background.0" x="103.27" y="-1.60" angle="90.00" type="human" speed="7.86" pos="103.27" lane="e0_0" slope="0.00"/>
        <vehicle id="ego" x="119.93" y="-1.60" angle="90.00" type="ego_glosa_type" speed="7.76" pos="119.93" lane="e0_0" slope="0.00"/>
    </timestep>
    <timestep time="70.00">
        <vehicle id="background.0" x="107.37" y="-1.60" angle="90.00" type="human" speed="8.20" pos="107.37" lane="e0_0" slope="0.00"/>
        <vehicle id="ego" x="123.81" y="-1.60" angle="90.00" type="ego_glosa_type" speed="7.76" pos="123.81" lane="e0_0" slope="0.00"/>
    </timestep>
    <timestep time="70.50">
        <vehicle id="background.0" x="111.30" y="-1.60" angle="90.00" type="human" speed="7.86" pos="111.30" lane="e0_0" slope="0.00"/>
        <vehicle id="ego" x="127.69" y="-1.60" angle="90.00" type="ego_glosa_type" speed="7.76" pos="127.69" lane="e0_0" slope="0.00"/>
    </timestep>
    <timestep time="71.00">
        <vehicle id="background.0" x="115.31" y="-1.60" angle="90.00" type="human" speed="8.03" pos="115.31" lane="e0_0" slope="0.00"/>
        <vehicle id="ego" x="131.57" y="-1.60" angle="90.00" type="ego_glosa_type" speed="7.76" pos="131.57" lane="e0_0" slope="0.00"/>
    </timestep>
    <timestep time="71.50">
        <vehicle id="background.0" x="119.38" y="-1.60" angle="90.00" type="human" speed="8.13" pos="119.38" lane="e0_0" slope="0.00"/>
        <vehicle id="ego" x="135.44" y="-1.60" angle="90.00" type="ego_glosa_type" speed="7.76" pos="135.44" lane="e0_0" slope="0.00"/>
    </timestep>
    <timestep time="72.00">
        <vehicle id="background.0" x="123.37" y="-1.60" angle="90.00" type="human" speed="7.98" pos="123.37" lane="e0_0" slope="0.00"/>
        <vehicle id="ego" x="139.32" y="-1.60" angle="90.00" type="ego_glosa_type" speed="7.76" pos="139.32" lane="e0_0" slope="0.00"/>
    </timestep>
    <timestep time="72.50">
        <vehicle id="background.0" x="127.19" y="-1.60" angle="90.00" type="human" speed="7.65" pos="127.19" lane="e0_0" slope="0.00"/>
        <vehicle id="ego" x="143.20" y="-1.60" angle="90.00" type="ego_glosa_type" speed="7.76" pos="143.20" lane="e0_0" slope="0.00"/>
    </timestep>
    <timestep time="73.00">
        <vehicle id="background.0" x="131.11" y="-1.60" angle="90.00" type="human" speed="7.84" pos="131.11" lane="e0_0" slope="0.00"/>
        <vehicle id="ego" x="147.08" y="-1.60" angle="90.00" type="ego_glosa_type" speed="7.76" pos="147.08" lane="e0_0" slope="0.00"/>
    </timestep>
    <timestep time="73.50">
        <vehicle id="background.0" x="135.01" y="-1.60" angle="90.00" type="human" speed="7.79" pos="135.01" lane="e0_0" slope="0.00"/>
        <vehicle id="ego" x="150.96" y="-1.60" angle="90.00" type="ego_glosa_type" speed="7.76" pos="150.96" lane="e0_0" slope="0.00"/>
    </timestep>
    <timestep time="74.00">
        <vehicle id="background.0" x="138.80" y="-1.60" angle="90.00" type="human" speed="7.59" pos="138.80" lane="e0_0" slope="0.00"/>
        <vehicle id="ego" x="154.84" y="-1.60" angle="90.00" type="ego_glosa_type" speed="7.76" pos="154.84" lane="e0_0" slope="0.00"/>
    </timestep>
    <timestep time="74.50">
        <vehicle id="background.0" x="142.68" y="-1.60" angle="90.00" type="human" speed="7.76" pos="142.68" lane="e0_0" slope="0.00"/>
        <vehicle id="ego" x="158.71" y="-1.60" angle="90.00" type="ego_glosa_type" speed="7.76" pos="158.71" lane="e0_0" slope="0.00"/>
    </timestep>
    <timestep time="75.00">
        <vehicle id="background.0" x="146.59" y="-1.60" angle="90.00" type="human" speed="7.81" pos="146.59" lane="e0_0" slope="0.00"/>
        <vehicle id="ego" x="162.59" y="-1.60" angle="90.00" type="ego_glosa_type" speed="7.76" pos="162.59" lane="e0_0" slope="0.00"/>
    </timestep>
    <timestep time="75.50">
        <vehicle id="background.0" x="150.43" y="-1.60" angle="90.00" type="human" speed="7.69" pos="150.43" lane="e0_0" slope="0.00"/>
        <vehicle id="ego" x="166.47" y="-1.60" angle="90.00" type="ego_glosa_type" speed="7.76" pos="166.47" lane="e0_0" slope="0.00"/>
    </timestep>
    <timestep time="76.00">
        <vehicle id="background.0" x="154.27" y="-1.60" angle="90.00" type="human" speed="7.69" pos="154.27" lane="e0_0" slope="0.00"/>
        <vehicle id="ego" x="170.35" y="-1.60" angle="90.00" type="ego_glosa_type" speed="7.76" pos="170.35" lane="e0_0" slope="0.00"/>
    </timestep>
    <timestep time="76.50">
        <vehicle id="background.0" x="158.20" y="-1.60" angle="90.00" type="human" speed="7.86" pos="158.20" lane="e0_0" slope="0.00"/>
        <vehicle id="ego" x="174.23" y="-1.60" angle="90.00" type="ego_glosa_type" speed="7.76" pos="174.23" lane="e0_0" slope="0.00"/>
    </timestep>
    <timestep time="77.00">
        <vehicle id="background.0" x="162.11" y="-1.60" angle="90.00" type="human" speed="7.81" pos="162.11" lane="e0_0" slope="0.00"/>
        <vehicle id="ego" x="178.10" y="-1.60" angle="90.00" type="ego_glosa_type" speed="7.76" pos="178.10" lane="e0_0" slope="0.00"/>
    </timestep>
    <timestep time="77.50">
        <vehicle id="background.0" x="165.89" y="-1.60" angle="90.00" type="human" speed="7.56" pos="165.89" lane="e0_0" slope="0.00"/>
        <vehicle id="ego" x="181.98" y="-1.60" angle="90.00" type="ego_glosa_type" speed="7.76" pos="181.98" lane="e0_0" slope="0.00"/>
    </timestep>
    <timestep time="78.00">
        <vehicle id="background.0" x="169.72" y="-1.60" angle="90.00" type="human" speed="7.66" pos="169.72" lane="e0_0" slope="0.00"/>
        <vehicle id="ego" x="185.86" y="-1.60" angle="90.00" type="ego_glosa_type" speed="7.76" pos="185.86" lane="e0_0" slope="0.00"/>
    </timestep>
    <timestep time="78.50">
        <vehicle id="background.0" x="173.53" y="-1.60" angle="90.00" type="human" speed="7.63" pos="173.53" lane="e0_0" slope="0.00"/>
        <vehicle id="ego" x="189.74" y="-1.60" angle="90.00" type="ego_glosa_type" speed="7.76" pos="189.74" lane="e0_0" slope="0.00"/>
    </timestep>
    <timestep time="79.00">
        <vehicle id="background.0" x="177.41" y="-1.60" angle="90.00" type="human" speed="7.76" pos="177.41" lane="e0_0" slope="0.00"/>
        <vehicle id="ego" x="193.62" y="-1.60" angle="90.00" type="ego_glosa_type" speed="7.76" pos="193.62" lane="e0_0" slope="0.00"/>
    </timestep>
    <timestep time="79.50">
        <vehicle id="background.0" x="181.38" y="-1.60" angle="90.00" type="human" speed="7.93" pos="181.38" lane="e0_0" slope="0.00"/>
        <vehicle id="ego" x="197.50" y="-1.60" angle="90.00" type="ego_glosa_type" speed="7.76" pos="197.50" lane="e0_0" slope="0.00"/>
    </timestep>
    <timestep time="80.00">
        <vehicle id="background.0" x="185.19" y="-1.60" angle="90.00" type="human" speed="7.62" pos="185.19" lane="e0_0" slope="0.00"/>
        <vehicle id="ego" x="201.37" y="-1.60" angle="90.00" type="ego_glosa_type" speed="7.76" pos="201.37" lane="e0_0" slope="0.00"/>
    </timestep>
    <timestep time="80.50">
        <vehicle id="background.0" x="189.11" y="-1.60" angle="90.00" type="human" speed="7.85" pos="189.11" lane="e0_0" slope="0.00"/>
        <vehicle id="ego" x="205.25" y="-1.60" angle="90.00" type="ego_glosa_type" speed="7.76" pos="205.25" lane="e0_0" slope="0.00"/>
    </timestep>
    <timestep time="81.00">
        <vehicle id="background.0" x="193.09" y="-1.60" angle="90.00" type="human" speed="7.95" pos="193.09" lane="e0_0" slope="0.00"/>
        <vehicle id="ego" x="209.13" y="-1.60" angle="90.00" type="ego_glosa_type" speed="7.76" pos="209.13" lane="e0_0" slope="0.00"/>
    </timestep>
    <timestep time="81.50">
        <vehicle id="background.0" x="196.94" y="-1.60" angle="90.00" type="human" speed="7.71" pos="196.94" lane="e0_0" slope="0.00"/>
        <vehicle id="ego" x="213.01" y="-1.60" angle="90.00" type="ego_glosa_type" speed="7.76" pos="213.01" lane="e0_0" slope="0.00"/>
    </timestep>
    <timestep time="82.00">
        <vehicle id="background.0" x="200.97" y="-1.60" angle="90.00" type="human" speed="8.06" pos="200.97" lane="e0_0" slope="0.00"/>
        <vehicle id="ego" x="216.89" y="-1.60" angle="90.00" type="ego_glosa_type" speed="7.76" pos="216.89" lane="e0_0" slope="0.00"/>
    </timestep>
    <timestep time="82.50">
        <vehicle id="background.0" x="204.90" y="-1.60" angle="90.00" type="human" speed="7.86" pos="204.90" lane="e0_0" slope="0.00"/>
        <vehicle id="ego" x="220.76" y="-1.60" angle="90.00" type="ego_glosa_type" speed="7.76" pos="220.76" lane="e0_0" slope="0.00"/>
    </timestep>
    <timestep time="83.00">
        <vehicle id="background.0" x="208.69" y="-1.60" angle="90.00" type="human" speed="7.58" pos="208.69" lane="e0_0" slope="0.00"/>
        <vehicle id="ego" x="224.64" y="-1.60" angle="90.00" type="ego_glosa_type" speed="7.76" pos="224.64" lane="e0_0" slope="0.00"/>
    </timestep>
    <timestep time="83.50">
        <vehicle id="background.0" x="212.47" y="-1.60" angle="90.00" type="human" speed="7.57" pos="212.47" lane="e0_0" slope="0.00"/>
        <vehicle id="ego" x="228.52" y="-1.60" angle="90.00" type="ego_glosa_type" speed="7.76" pos="228.52" lane="e0_0" slope="0.00"/>
    </timestep>
    <timestep time="84.00">
        <vehicle id="background.0" x="216.38" y="-1.60" angle="90.00" type="human" speed="7.80" pos="216.38" lane="e0_0" slope="0.00"/>
        <vehicle id="ego" x="232.40" y="-1.60" angle="90.00" type="ego_glosa_type" speed="7.76" pos="232.40" lane="e0_0" slope="0.00"/>
    </timestep>
    <timestep time="84.50">
        <vehicle id="background.0" x="220.41" y="-1.60" angle="90.00" type="human" speed="8.06" pos="220.41" lane="e0_0" slope="0.00"/>
        <vehicle id="ego" x="236.28" y="-1.60" angle="90.00" type="ego_glosa_type" speed="7.76" pos="236.28" lane="e0_0" slope="0.00"/>
    </timestep>
    <timestep time="85.00">
        <vehicle id="background.0" x="224.31" y="-1.60" angle="90.00" type="human" speed="7.80" pos="224.31" lane="e0_0" slope="0.00"/>
        <vehicle id="ego" x="240.16" y="-1.60" angle="90.00" type="ego_glosa_type" speed="7.76" pos="240.16" lane="e0_0" slope="0.00"/>
    </timestep>
    <timestep time="85.50">
        <vehicle id="background.0" x="228.21" y="-1.60" angle="90.00" type="human" speed="7.81" pos="228.21" lane="e0_0" slope="0.00"/>
        <vehicle id="ego" x="244.03" y="-1.60" angle="90.00" type="ego_glosa_type" speed="7.76" pos="244.03" lane="e0_0" slope="0.00"/>
    </timestep>
    <timestep time="86.00">
        <vehicle id="background.0" x="232.18" y="-1.60" angle="90.00" type="human" speed="7.94" pos="232.18" lane="e0_0" slope="0.00"/>
        <vehicle id="ego" x="247.91" y="-1.60" angle="90.00" type="ego_glosa_type" speed="7.76" pos="247.91" lane="e0_0" slope="0.00"/>
    </timestep>
    <timestep time="86.50">
        <vehicle id="background.0" x="235.97" y="-1.60" angle="90.00" type="human" speed="7.58" pos="235.97" lane="e0_0" slope="0.00"/>
        <vehicle id="ego" x="251.79" y="-1.60" angle="90.00" type="ego_glosa_type" speed="7.76" pos="251.79" lane="e0_0" slope="0.00"/>
    </timestep>
    <timestep time="87.00">
        <vehicle id="background.0" x="239.84" y="-1.60" angle="90.00" type="human" speed="7.73" pos="239.84" lane="e0_0" slope="0.00"/>
        <vehicle id="ego" x="255.67" y="-1.60" angle="90.00" type="ego_glosa_type" speed="7.76" pos="255.67" lane="e0_0" slope="0.00"/>
    </timestep>
    <timestep time="87.50">
        <vehicle id="background.0" x="243.59" y="-1.60" angle="90.00" type="human" speed="7.50" pos="243.59" lane="e0_0" slope="0.00"/>
        <vehicle id="ego" x="259.55" y="-1.60" angle="90.00" type="ego_glosa_type" speed="7.76" pos="259.55" lane="e0_0" slope="0.00"/>
    </timestep>
    <timestep time="88.00">
        <vehicle id="background.0" x="247.36" y="-1.60" angle="90.00" type="human" speed="7.55" pos="247.36" lane="e0_0" slope="0.00"/>
        <vehicle id="ego" x="263.43" y="-1.60" angle="90.00" type="ego_glosa_type" speed="7.76" pos="263.43" lane="e0_0" slope="0.00"/>
    </timestep>
    <timestep time="88.50">
        <vehicle id="background.0" x="251.23" y="-1.60" angle="90.00" type="human" speed="7.75" pos="251.23" lane="e0_0" slope="0.00"/>
        <vehicle id="ego" x="267.30" y="-1.60" angle="90.00" type="ego_glosa_type" speed="7.76" pos="267.30" lane="e0_0" slope="0.00"/>
    </timestep>
    <timestep time="89.00">
        <vehicle id="background.0" x="255.06" y="-1.60" angle="90.00" type="human" speed="7.66" pos="255.06" lane="e0_0" slope="0.00"/>
        <vehicle id="ego" x="271.18" y="-1.60" angle="90.00" type="ego_glosa_type" speed="7.76" pos="271.18" lane="e0_0" slope="0.00"/>
    </timestep>
    <timestep time="89.50">
        <vehicle id="background.0" x="258.95" y="-1.60" angle="90.00" type="human" speed="7.78" pos="258.95" lane="e0_0" slope="0.00"/>
        <vehicle id="ego" x="275.06" y="-1.60" angle="90.00" type="ego_glosa_type" speed="7.76" pos="275.06" lane="e0_0" slope="0.00"/>
    </timestep>
    <timestep time="90.00">
        <vehicle id="background.0" x="262.80" y="-1.60" angle="90.00" type="human" speed="7.69" pos="262.80" lane="e0_0" slope="0.00"/>
        <vehicle id="ego" x="278.94" y="-1.60" angle="90.00" type="ego_glosa_type" speed="7.76" pos="278.94" lane="e0_0" slope="0.00"/>
    </timestep>
    <timestep time="90.50">
        <vehicle id="background.0" x="266.73" y="-1.60" angle="90.00" type="human" speed="7.85" pos="266.73" lane="e0_0" slope="0.00"/>
        <vehicle id="ego" x="283.32" y="-1.60" angle="90.00" type="ego_glosa_type" speed="8.76" pos="283.32" lane="e0_0" slope="0.00"/>
    </timestep>
    <timestep time="91.00">
        <vehicle id="background.0" x="271.12" y="-1.60" angle="90.00" type="human" speed="8.79" pos="271.12" lane="e0_0" slope="0.00"/>
        <vehicle id="ego" x="288.19" y="-1.60" angle="90.00" type="ego_glosa_type" speed="9.76" pos="288.19" lane="e0_0" slope="0.00"/>
    </timestep>
    <timestep time="91.50">
        <vehicle id="background.0" x="275.91" y="-1.60" angle="90.00" type="human" speed="9.57" pos="275.91" lane="e0_0" slope="0.00"/>
        <vehicle id="background.1" x="5.10" y="-1.60" angle="90.00" type="human" speed="12.83" pos="5.10" lane="e0_0" slope="0.00"/>
        <vehicle id="ego" x="293.57" y="-1.60" angle="90.00" type="ego_glosa_type" speed="10.76" pos="293.57" lane="e0_0" slope="0.00"/>
    </timestep>
    <timestep time="92.00">
        <vehicle id="background.0" x="281.12" y="-1.60" angle="90.00" type="human" speed="10.44" pos="281.12" lane="e0_0" slope="0.00"/>
        <vehicle id="background.1" x="11.38" y="-1.60" angle="90.00" type="human" speed="12.57" pos="11.38" lane="e0_0" slope="0.00"/>
        <vehicle id="ego" x="299.45" y="-1.60" angle="90.00" type="ego_glosa_type" speed="11.76" pos="299.45" lane="e0_0" slope="0.00"/>
    </timestep>
    <timestep time="92.50">
        <vehicle id="background.0" x="286.68" y="-1.60" angle="90.00" type="human" speed="11.10" pos="286.68" lane="e0_0" slope="0.00"/>
        <vehicle id="background.1" x="17.76" y="-1.60" angle="90.00" type="human" speed="12.74" pos="17.76" lane="e0_0" slope="0.00"/>
        <vehicle id="ego" x="305.58" y="-1.60" angle="90.00" type="ego_glosa_type" speed="12.47" pos="5.58" lane="e1_0" slope="0.00"/>
    </timestep>
    <timestep time="93.00">
        <vehicle id="background.0" x="292.52" y="-1.60" angle="90.00" type="human" speed="11.69" pos="292.52" lane="e0_0" slope="0.00"/>
        <vehicle id="background.1" x="23.97" y="-1.60" angle="90.00" type="human" speed="12.43" pos="23.97" lane="e0_0" slope="0.00"/>
        <vehicle id="ego" x="311.82" y="-1.60" angle="90.00" type="ego_glosa_type" speed="12.47" pos="11.82" lane="e1_0" slope="0.00"/>
    </timestep>
    <timestep time="93.50">
        <vehicle id="background.0" x="298.67" y="-1.60" angle="90.00" type="human" speed="12.30" pos="298.67" lane="e0_0" slope="0.00"/>
        <vehicle id="background.1" x="30.36" y="-1.60" angle="90.00" type="human" speed="12.78" pos="30.36" lane="e0_0" slope="0.00"/>
        <vehicle id="ego" x="318.05" y="-1.60" angle="90.00" type="ego_glosa_type" speed="12.47" pos="18.05" lane="e1_0" slope="0.00"/>
    </timestep>
    <timestep time="94.00">
        <vehicle id="background.0" x="304.59" y="-1.60" angle="90.00" type="human" speed="12.04" pos="4.59" lane="e1_0" slope="0.00"/>
        <vehicle id="background.1" x="36.62" y="-1.60" angle="90.00" type="human" speed="12.51" pos="36.62" lane="e0_0" slope="0.00"/>
        <vehicle id="ego" x="324.29" y="-1.60" angle="90.00" type="ego_glosa_type" speed="12.47" pos="24.29" lane="e1_0" slope="0.00"/>
    </timestep>
    <timestep time="94.50">
        <vehicle id="background.0" x="310.57" y="-1.60" angle="90.00" type="human" speed="11.95" pos="10.57" lane="e1_0" slope="0.00"/>
        <vehicle id="background.1" x="42.91" y="-1.60" angle="90.00" type="human" speed="12.58" pos="42.91" lane="e0_0" slope="0.00"/>
        <vehicle id="ego" x="330.52" y="-1.60" angle="90.00" type="ego_glosa_type" speed="12.47" pos="30.52" lane="e1_0" slope="0.00"/>
    </timestep>
    <timestep time="95.00">
        <vehicle id="background.0" x="316.67" y="-1.60" angle="90.00" type="human" speed="12.21" pos="16.67" lane="e1_0" slope="0.00"/>
        <vehicle id="background.1" x="49.10" y="-1.60" angle="90.00" type="human" speed="12.38" pos="49.10" lane="e0_0" slope="0.00"/>