<?xml version="1.0" encoding="UTF-8"?>

<!-- generated on 2026-05-14 17:06:23 by Eclipse SUMO sumo Version 1.24.0
<sumoConfiguration xmlns:xsi="http://www.w3.org/2001/XMLSchema-instance" xsi:noNamespaceSchemaLocation="http://sumo.dlr.de/xsd/sumoConfiguration.xsd">

    <input>
        <net-file value="scenarios/simple_arterial/simple_arterial.net.xml"/>
        <route-files value="scenarios/simple_arterial/simple_arterial_glosa.rou.xml"/>
        <additional-files value="scenarios/simple_arterial/simple_arterial.tls.xml"/>
    </input>

    <output>
        <fcd-output value="runs/fcd_expert_glosa/episode_00054_seed_96.fcd.xml"/>
    </output>

    <time>
        <begin value="0"/>
        <end value="900"/>
        <step-length value="0.5"/>
    </time>

    <report>
        <no-warnings value="true"/>
    </report>

    <traci_server>
        <remote-port value="37703"/>
    </traci_server>

    <random_number>
        <seed value="96"/>
    </random_number>

</sumoConfiguration>
-->

<fcd-export xmlns:xsi="http://www.w3.org/2001/XMLSchema-instance" xsi:noNamespaceSchemaLocation="http://sumo.dlr.de/xsd/fcd_file.xsd">
    <timestep time="0.00"/>
    <timestep time="0.50"/>
    <timestep time="1.00"/>
    <timestep time="1.50"/>
    <timestep time="2.00"/>
    <timestep time="2.50">
        <vehicle id="background.0" x="5.10" y="-1.60" angle="90.00" type="human" speed="11.82" pos="5.10" lane="e0_0" slope="0.00"/>
    </timestep>
    <timestep time="3.00">
        <vehicle id="background.0" x="10.80" y="-1.60" angle="90.00" type="human" speed="11.41" pos="10.80" lane="e0_0" slope="0.00"/>
    </timestep>
    <timestep time="3.50">
        <vehicle id="background.0" x="16.51" y="-1.60" angle="90.00" type="human" speed="11.41" pos="16.51" lane="e0_0" slope="0.00"/>
    </timestep>
    <timestep time="4.00">
        <vehicle id="background.0" x="22.18" y="-1.60" angle="90.00" type="human" speed="11.34" pos="22.18" lane="e0_0" slope="0.00"/>
    </timestep>
    <timestep time="4.50">
        <vehicle id="background.0" x="27.92" y="-1.60" angle="90.00" type="human" speed="11.49" pos="27.92" lane="e0_0" slope="0.00"/>
    </timestep>
    <timestep time="5.00">
        <vehicle id="background.0" x="33.72" y="-1.60" angle="90.00" type="human" speed="11.60" pos="33.72" lane="e0_0" slope="0.00"/>
    </timestep>
    <timestep time="5.50">
        <vehicle id="background.0" x="39.61" y="-1.60" angle="90.00" type="human" speed="11.76" pos="39.61" lane="e0_0" slope="0.00"/>
    </timestep>
    <timestep time="6.00">
        <vehicle id="background.0" x="45.45" y="-1.60" angle="90.00" type="human" speed="11.68" pos="45.45" lane="e0_0" slope="0.00"/>
    </timestep>
    <timestep time="6.50">
        <vehicle id="background.0" x="51.24" y="-1.60" angle="90.00" type="human" speed="11.59" pos="51.24" lane="e0_0" slope="0.00"/>
    </timestep>
    <timestep time="7.00">
        <vehicle id="background.0" x="56.96" y="-1.60" angle="90.00" type="human" speed="11.44" pos="56.96" lane="e0_0" slope="0.00"/>
    </timestep>
    <timestep time="7.50">
        <vehicle id="background.0" x="62.82" y="-1.60" angle="90.00" type="human" speed="11.71" pos="62.82" lane="e0_0" slope="0.00"/>
    </timestep>
    <timestep time="8.00">
        <vehicle id="background.0" x="68.65" y="-1.60" angle="90.00" type="human" speed="11.68" pos="68.65" lane="e0_0" slope="0.00"/>
    </timestep>
    <timestep time="8.50">
        <vehicle id="background.0" x="74.54" y="-1.60" angle="90.00" type="human" speed="11.77" pos="74.54" lane="e0_0" slope="0.00"/>
    </timestep>
    <timestep time="9.00">
        <vehicle id="background.0" x="80.20" y="-1.60" angle="90.00" type="human" speed="11.34" pos="80.20" lane="e0_0" slope="0.00"/>
    </timestep>
    <timestep time="9.50">
        <vehicle id="background.0" x="85.99" y="-1.60" angle="90.00" type="human" speed="11.56" pos="85.99" lane="e0_0" slope="0.00"/>
    </timestep>
    <timestep time="10.00">
        <vehicle id="background.0" x="91.67" y="-1.60" angle="90.00" type="human" speed="11.36" pos="91.67" lane="e0_0" slope="0.00"/>
    </timestep>
    <timestep time="10.50">
        <vehicle id="background.0" x="97.56" y="-1.60" angle="90.00" type="human" speed="11.79" pos="97.56" lane="e0_0" slope="0.00"/>
    </timestep>
    <timestep time="11.00">
        <vehicle id="background.0" x="103.42" y="-1.60" angle="90.00" type="human" speed="11.72" pos="103.42" lane="e0_0" slope="0.00"/>
    </timestep>
    <timestep time="11.50">
        <vehicle id="background.0" x="109.31" y="-1.60" angle="90.00" type="human" speed="11.78" pos="109.31" lane="e0_0" slope="0.00"/>
    </timestep>
    <timestep time="12.00">
        <vehicle id="background.0" x="115.14" y="-1.60" angle="90.00" type="human" speed="11.65" pos="115.14" lane="e0_0" slope="0.00"/>
    </timestep>
    <timestep time="12.50">
        <vehicle id="background.0" x="120.87" y="-1.60" angle="90.00" type="human" speed="11.47" pos="120.87" lane="e0_0" slope="0.00"/>
    </timestep>
    <timestep time="13.00">
        <vehicle id="background.0" x="126.73" y="-1.60" angle="90.00" type="human" speed="11.72" pos="126.73" lane="e0_0" slope="0.00"/>
    </timestep>
    <timestep time="13.50">
        <vehicle id="background.0" x="132.62" y="-1.60" angle="90.00" type="human" speed="11.76" pos="132.62" lane="e0_0" slope="0.00"/>
    </timestep>
    <timestep time="14.00">
        <vehicle id="background.0" x="138.45" y="-1.60" angle="90.00" type="human" speed="11.68" pos="138.45" lane="e0_0" slope="0.00"/>
    </timestep>
    <timestep time="14.50">
        <vehicle id="background.0" x="144.23" y="-1.60" angle="90.00" type="human" speed="11.55" pos="144.23" lane="e0_0" slope="0.00"/>
    </timestep>
    <timestep time="15.00">
        <vehicle id="background.0" x="150.06" y="-1.60" angle="90.00" type="human" speed="11.65" pos="150.06" lane="e0_0" slope="0.00"/>
    </timestep>
    <timestep time="15.50">
        <vehicle id="background.0" x="155.85" y="-1.60" angle="90.00" type="human" speed="11.58" pos="155.85" lane="e0_0" slope="0.00"/>
    </timestep>
    <timestep time="16.00">
        <vehicle id="background.0" x="161.53" y="-1.60" angle="90.00" type="human" speed="11.37" pos="161.53" lane="e0_0" slope="0.00"/>
    </timestep>
    <timestep time="16.50">
        <vehicle id="background.0" x="167.30" y="-1.60" angle="90.00" type="human" speed="11.54" pos="167.30" lane="e0_0" slope="0.00"/>
    </timestep>
    <timestep time="17.00">
        <vehicle id="background.0" x="173.18" y="-1.60" angle="90.00" type="human" speed="11.76" pos="173.18" lane="e0_0" slope="0.00"/>
    </timestep>
    <timestep time="17.50">
        <vehicle id="background.0" x="178.94" y="-1.60" angle="90.00" type="human" speed="11.52" pos="178.94" lane="e0_0" slope="0.00"/>
        <vehicle id="background.1" x="5.10" y="-1.60" angle="90.00" type="human" speed="13.89" pos="5.10" lane="e0_0" slope="0.00"/>
    </timestep>
    <timestep time="18.00">
        <vehicle id="background.0" x="184.80" y="-1.60" angle="90.00" type="human" speed="11.73" pos="184.80" lane="e0_0" slope="0.00"/>
        <vehicle id="background.1" x="12.04" y="-1.60" angle="90.00" type="human" speed="13.89" pos="12.04" lane="e0_0" slope="0.00"/>
    </timestep>
    <timestep time="18.50">
        <vehicle id="background.0" x="190.68" y="-1.60" angle="90.00" type="human" speed="11.74" pos="190.68" lane="e0_0" slope="0.00"/>
        <vehicle id="background.1" x="18.98" y="-1.60" angle="90.00" type="human" speed="13.87" pos="18.98" lane="e0_0" slope="0.00"/>
    </timestep>
    <timestep time="19.00">
        <vehicle id="background.0" x="196.56" y="-1.60" angle="90.00" type="human" speed="11.77" pos="196.56" lane="e0_0" slope="0.00"/>
        <vehicle id="background.1" x="25.79" y="-1.60" angle="90.00" type="human" speed="13.61" pos="25.79" lane="e0_0" slope="0.00"/>
    </timestep>
    <timestep time="19.50">
        <vehicle id="background.0" x="202.37" y="-1.60" angle="90.00" type="human" speed="11.62" pos="202.37" lane="e0_0" slope="0.00"/>
        <vehicle id="background.1" x="32.67" y="-1.60" angle="90.00" type="human" speed="13.77" pos="32.67" lane="e0_0" slope="0.00"/>
    </timestep>
    <timestep time="20.00">
        <vehicle id="background.0" x="208.20" y="-1.60" angle="90.00" type="human" speed="11.67" pos="208.20" lane="e0_0" slope="0.00"/>
        <vehicle id="background.1" x="39.57" y="-1.60" angle="90.00" type="human" speed="13.80" pos="39.57" lane="e0_0" slope="0.00"/>
    </timestep>
    <timestep time="20.50">
        <vehicle id="background.0" x="214.08" y="-1.60" angle="90.00" type="human" speed="11.76" pos="214.08" lane="e0_0" slope="0.00"/>
        <vehicle id="background.1" x="46.33" y="-1.60" angle="90.00" type="human" speed="13.52" pos="46.33" lane="e0_0" slope="0.00"/>
    </timestep>
    <timestep time="21.00">
        <vehicle id="background.0" x="219.80" y="-1.60" angle="90.00" type="human" speed="11.44" pos="219.80" lane="e0_0" slope="0.00"/>
        <vehicle id="background.1" x="53.21" y="-1.60" angle="90.00" type="human" speed="13.75" pos="53.21" lane="e0_0" slope="0.00"/>
    </timestep>
    <timestep time="21.50">
        <vehicle id="background.0" x="225.57" y="-1.60" angle="90.00" type="human" speed="11.52" pos="225.57" lane="e0_0" slope="0.00"/>
        <vehicle id="background.1" x="60.13" y="-1.60" angle="90.00" type="human" speed="13.84" pos="60.13" lane="e0_0" slope="0.00"/>
    </timestep>
    <timestep time="22.00">
        <vehicle id="background.0" x="231.32" y="-1.60" angle="90.00" type="human" speed="11.52" pos="231.32" lane="e0_0" slope="0.00"/>
        <vehicle id="background.1" x="67.02" y="-1.60" angle="90.00" type="human" speed="13.78" pos="67.02" lane="e0_0" slope="0.00"/>
    </timestep>
    <timestep time="22.50">
        <vehicle id="background.0" x="237.07" y="-1.60" angle="90.00" type="human" speed="11.49" pos="237.07" lane="e0_0" slope="0.00"/>
        <vehicle id="background.1" x="73.77" y="-1.60" angle="90.00" type="human" speed="13.51" pos="73.77" lane="e0_0" slope="0.00"/>
    </timestep>
    <timestep time="23.00">
        <vehicle id="background.0" x="242.80" y="-1.60" angle="90.00" type="human" speed="11.45" pos="242.80" lane="e0_0" slope="0.00"/>
        <vehicle id="background.1" x="80.71" y="-1.60" angle="90.00" type="human" speed="13.88" pos="80.71" lane="e0_0" slope="0.00"/>
    </timestep>
    <timestep time="23.50">
        <vehicle id="background.0" x="248.61" y="-1.60" angle="90.00" type="human" speed="11.62" pos="248.61" lane="e0_0" slope="0.00"/>
        <vehicle id="background.1" x="87.54" y="-1.60" angle="90.00" type="human" speed="13.65" pos="87.54" lane="e0_0" slope="0.00"/>
    </timestep>
    <timestep time="24.00">
        <vehicle id="background.0" x="254.48" y="-1.60" angle="90.00" type="human" speed="11.74" pos="254.48" lane="e0_0" slope="0.00"/>
        <vehicle id="background.1" x="94.44" y="-1.60" angle="90.00" type="human" speed="13.81" pos="94.44" lane="e0_0" slope="0.00"/>
    </timestep>
    <timestep time="24.50">
        <vehicle id="background.0" x="260.34" y="-1.60" angle="90.00" type="human" speed="11.74" pos="260.34" lane="e0_0" slope="0.00"/>
        <vehicle id="background.1" x="101.28" y="-1.60" angle="90.00" type="human" speed="13.68" pos="101.28" lane="e0_0" slope="0.00"/>
    </timestep>
    <timestep time="25.00">
        <vehicle id="background.0" x="266.17" y="-1.60" angle="90.00" type="human" speed="11.66" pos="266.17" lane="e0_0" slope="0.00"/>
        <vehicle id="background.1" x="108.18" y="-1.60" angle="90.00" type="human" speed="13.81" pos="108.18" lane="e0_0" slope="0.00"/>
        <vehicle id="background.2" x="5.10" y="-1.60" angle="90.00" type="human" speed="13.89" pos="5.10" lane="e0_0" slope="0.00"/>
    </timestep>
    <timestep time="25.50">
        <vehicle id="background.0" x="271.93" y="-1.60" angle="90.00" type="human" speed="11.51" pos="271.93" lane="e0_0" slope="0.00"/>
        <vehicle id="background.1" x="115.09" y="-1.60" angle="90.00" type="human" speed="13.82" pos="115.09" lane="e0_0" slope="0.00"/>
        <vehicle id="background.2" x="11.81" y="-1.60" angle="90.00" type="human" speed="13.42" pos="11.81" lane="e0_0" slope="0.00"/>
    </timestep>
    <timestep time="26.00">
        <vehicle id="background.0" x="277.75" y="-1.60" angle="90.00" type="human" speed="11.65" pos="277.75" lane="e0_0" slope="0.00"/>
        <vehicle id="background.1" x="121.97" y="-1.60" angle="90.00" type="human" speed="13.76" pos="121.97" lane="e0_0" slope="0.00"/>
        <vehicle id="background.2" x="18.56" y="-1.60" angle="90.00" type="human" speed="13.51" pos="18.56" lane="e0_0" slope="0.00"/>
    </timestep>
    <timestep time="26.50">
        <vehicle id="background.0" x="283.65" y="-1.60" angle="90.00" type="human" speed="11.78" pos="283.65" lane="e0_0" slope="0.00"/>
        <vehicle id="background.1" x="128.81" y="-1.60" angle="90.00" type="human" speed="13.67" pos="128.81" lane="e0_0" slope="0.00"/>
        <vehicle id="background.2" x="25.26" y="-1.60" angle="90.00" type="human" speed="13.39" pos="25.26" lane="e0_0" slope="0.00"/>
    </timestep>
    <timestep time="27.00">
        <vehicle id="background.0" x="289.50" y="-1.60" angle="90.00" type="human" speed="11.70" pos="289.50" lane="e0_0" slope="0.00"/>
        <vehicle id="background.1" x="135.75" y="-1.60" angle="90.00" type="human" speed="13.89" pos="135.75" lane="e0_0" slope="0.00"/>
        <vehicle id="background.2" x="32.11" y="-1.60" angle="90.00" type="human" speed="13.70" pos="32.11" lane="e0_0" slope="0.00"/>
    </timestep>
    <timestep time="27.50">
        <vehicle id="background.0" x="295.17" y="-1.60" angle="90.00" type="human" speed="11.36" pos="295.17" lane="e0_0" slope="0.00"/>
        <vehicle id="background.1" x="142.48" y="-1.60" angle="90.00" type="human" speed="13.45" pos="142.48" lane="e0_0" slope="0.00"/>
        <vehicle id="background.2" x="38.96" y="-1.60" angle="90.00" type="human" speed="13.71" pos="38.96" lane="e0_0" slope="0.00"/>
    </timestep>
    <timestep time="28.00">
        <vehicle id="background.0" x="300.88" y="-1.60" angle="90.00" type="human" speed="11.61" pos="0.88" lane="e1_0" slope="0.00"/>
        <vehicle id="background.1" x="149.21" y="-1.60" angle="90.00" type="human" speed="13.48" pos="149.21" lane="e0_0" slope="0.00"/>
        <vehicle id="background.2" x="45.86" y="-1.60" angle="90.00" type="human" speed="13.80" pos="45.86" lane="e0_0" slope="0.00"/>
    </timestep>
    <timestep time="28.50">
        <vehicle id="background.0" x="306.61" y="-1.60" angle="90.00" type="human" speed="11.46" pos="6.61" lane="e1_0" slope="0.00"/>
        <vehicle id="background.1" x="156.13" y="-1.60" angle="90.00" type="human" speed="13.83" pos="156.13" lane="e0_0" slope="0.00"/>
        <vehicle id="background.2" x="52.77" y="-1.60" angle="90.00" type="human" speed="13.82" pos="52.77" lane="e0_0" slope="0.00"/>
    </timestep>
    <timestep time="29.00">
        <vehicle id="background.0" x="312.44" y="-1.60" angle="90.00" type="human" speed="11.66" pos="12.44" lane="e1_0" slope="0.00"/>
        <vehicle id="background.1" x="162.97" y="-1.60" angle="90.00" type="human" speed="13.68" pos="162.97" lane="e0_0" slope="0.00"/>
        <vehicle id="background.2" x="59.60" y="-1.60" angle="90.00" type="human" speed="13.65" pos="59.60" lane="e0_0" slope="0.00"/>
    </timestep>
    <timestep time="29.50">
        <vehicle id="background.0" x="318.21" y="-1.60" angle="90.00" type="human" speed="11.54" pos="18.21" lane="e1_0" slope="0.00"/>
        <vehicle id="background.1" x="169.70" y="-1.60" angle="90.00" type="human" speed="13.46" pos="169.70" lane="e0_0" slope="0.00"/>
        <vehicle id="background.2" x="66.45" y="-1.60" angle="90.00" type="human" speed="13.70" pos="66.45" lane="e0_0" slope="0.00"/>
    </timestep>
    <timestep time="30.00">
        <vehicle id="background.0" x="324.12" y="-1.60" angle="90.00" type="human" speed="11.82" pos="24.12" lane="e1_0" slope="0.00"/>
        <vehicle id="background.1" x="176.60" y="-1.60" angle="90.00" type="human" speed="13.80" pos="176.60" lane="e0_0" slope="0.00"/>
        <vehicle id="background.2" x="73.36" y="-1.60" angle="90.00" type="human" speed="13.83" pos="73.36" lane="e0_0" slope="0.00"/>
    </timestep>
    <timestep time="30.50">
        <vehicle id="background.0" x="329.96" y="-1.60" angle="90.00" type="human" speed="11.67" pos="29.96" lane="e1_0" slope="0.00"/>
        <vehicle id="background.1" x="183.37" y="-1.60" angle="90.00" type="human" speed="13.56" pos="183.37" lane="e0_0" slope="0.00"/>
        <vehicle id="background.2" x="80.08" y="-1.60" angle="90.00" type="human" speed="13.44" pos="80.08" lane="e0_0" slope="0.00"/>
    </timestep>
    <timestep time="31.00">
        <vehicle id="background.0" x="335.84" y="-1.60" angle="90.00" type="human" speed="11.75" pos="35.84" lane="e1_0" slope="0.00"/>
        <vehicle id="background.1" x="190.20" y="-1.60" angle="90.00" type="human" speed="13.64" pos="190.20" lane="e0_0" slope="0.00"/>
        <vehicle id="background.2" x="86.82" y="-1.60" angle="90.00" type="human" speed="13.48" pos="86.82" lane="e0_0" slope="0.00"/>
    </timestep>
    <timestep time="31.50">
        <vehicle id="background.0" x="341.55" y="-1.60" angle="90.00" type="human" speed="11.43" pos="41.55" lane="e1_0" slope="0.00"/>
        <vehicle id="background.1" x="197.10" y="-1.60" angle="90.00" type="human" speed="13.81" pos="197.10" lane="e0_0" slope="0.00"/>
        <vehicle id="background.2" x="93.74" y="-1.60" angle="90.00" type="human" speed="13.84" pos="93.74" lane="e0_0" slope="0.00"/>
    </timestep>
    <timestep time="32.00">
        <vehicle id="background.0" x="347.27" y="-1.60" angle="90.00" type="human" speed="11.44" pos="47.27" lane="e1_0" slope="0.00"/>
        <vehicle id="background.1" x="203.81" y="-1.60" angle="90.00" type="human" speed="13.43" pos="203.81" lane="e0_0" slope="0.00"/>
        <vehicle id="background.2" x="100.65" y="-1.60" angle="90.00" type="human" speed="13.81" pos="100.65" lane="e0_0" slope="0.00"/>
    </timestep>
    <timestep time="32.50">
        <vehicle id="background.1" x="210.69" y="-1.60" angle="90.00" type="human" speed="13.76" pos="210.69" lane="e0_0" slope="0.00"/>
        <vehicle id="background.2" x="107.55" y="-1.60" angle="90.00" type="human" speed="13.80" pos="107.55" lane="e0_0" slope="0.00"/>
    </timestep>
    <timestep time="33.00">
        <vehicle id="background.1" x="217.45" y="-1.60" angle="90.00" type="human" speed="13.51" pos="217.45" lane="e0_0" slope="0.00"/>
        <vehicle id="background.2" x="114.29" y="-1.60" angle="90.00" type="human" speed="13.49" pos="114.29" lane="e0_0" slope="0.00"/>
    </timestep>
    <timestep time="33.50">
        <vehicle id="background.1" x="224.17" y="-1.60" angle="90.00" type="human" speed="13.45" pos="224.17" lane="e0_0" slope="0.00"/>
        <vehicle id="background.2" x="121.12" y="-1.60" angle="90.00" type="human" speed="13.67" pos="121.12" lane="e0_0" slope="0.00"/>
    </timestep>
    <timestep time="34.00">
        <vehicle id="background.1" x="231.06" y="-1.60" angle="90.00" type="human" speed="13.76" pos="231.06" lane="e0_0" slope="0.00"/>
        <vehicle id="background.2" x="127.96" y="-1.60" angle="90.00" type="human" speed="13.66" pos="127.96" lane="e0_0" slope="0.00"/>
    </timestep>
    <timestep time="34.50">
        <vehicle id="background.1" x="237.79" y="-1.60" angle="90.00" type="human" speed="13.46" pos="237.79" lane="e0_0" slope="0.00"/>
        <vehicle id="background.2" x="134.81" y="-1.60" angle="90.00" type="human" speed="13.71" pos="134.81" lane="e0_0" slope="0.00"/>
    </timestep>
    <timestep time="35.00">
        <vehicle id="background.1" x="244.71" y="-1.60" angle="90.00" type="human" speed="13.85" pos="244.71" lane="e0_0" slope="0.00"/>
        <vehicle id="background.2" x="141.54" y="-1.60" angle="90.00" type="human" speed="13.45" pos="141.54" lane="e0_0" slope="0.00"/>
    </timestep>
    <timestep time="35.50">
        <vehicle id="background.1" x="251.54" y="-1.60" angle="90.00" type="human" speed="13.67" pos="251.54" lane="e0_0" slope="0.00"/>
        <vehicle id="background.2" x="148.47" y="-1.60" angle="90.00" type="human" speed="13.87" pos="148.47" lane="e0_0" slope="0.00"/>
    </timestep>
    <timestep time="36.00">
        <vehicle id="background.1" x="258.26" y="-1.60" angle="90.00" type="human" speed="13.43" pos="258.26" lane="e0_0" slope="0.00"/>
        <vehicle id="background.2" x="155.18" y="-1.60" angle="90.00" type="human" speed="13.42" pos="155.18" lane="e0_0" slope="0.00"/>
    </timestep>
    <timestep time="36.50">
        <vehicle id="background.1" x="264.96" y="-1.60" angle="90.00" type="human" speed="13.39" pos="264.96" lane="e0_0" slope="0.00"/>
        <vehicle id="background.2" x="162.06" y="-1.60" angle="90.00" type="human" speed="13.77" pos="162.06" lane="e0_0" slope="0.00"/>
    </timestep>
    <timestep time="37.00">
        <vehicle id="background.1" x="271.66" y="-1.60" angle="90.00" type="human" speed="13.42" pos="271.66" lane="e0_0" slope="0.00"/>
        <vehicle id="background.2" x="168.95" y="-1.60" angle="90.00" type="human" speed="13.77" pos="168.95" lane="e0_0" slope="0.00"/>
    </timestep>
    <timestep time="37.50">
        <vehicle id="background.1" x="278.48" y="-1.60" angle="90.00" type="human" speed="13.63" pos="278.48" lane="e0_0" slope="0.00"/>
        <vehicle id="background.2" x="175.82" y="-1.60" angle="90.00" type="human" speed="13.73" pos="175.82" lane="e0_0" slope="0.00"/>
    </timestep>
    <timestep time="38.00">
        <vehicle id="background.1" x="285.27" y="-1.60" angle="90.00" type="human" speed="13.58" pos="285.27" lane="e0_0" slope="0.00"/>
        <vehicle id="background.2" x="182.72" y="-1.60" angle="90.00" type="human" speed="13.82" pos="182.72" lane="e0_0" slope="0.00"/>
    </timestep>
    <timestep time="38.50">
        <vehicle id="background.1" x="292.14" y="-1.60" angle="90.00" type="human" speed="13.76" pos="292.14" lane="e0_0" slope="0.00"/>
        <vehicle id="background.2" x="189.55" y="-1.60" angle="90.00" type="human" speed="13.66" pos="189.55" lane="e0_0" slope="0.00"/>
    </timestep>
    <timestep time="39.00">
        <vehicle id="background.1" x="299.01" y="-1.60" angle="90.00" type="human" speed="13.73" pos="299.01" lane="e0_0" slope="0.00"/>
        <vehicle id="background.2" x="196.47" y="-1.60" angle="90.00" type="human" speed="13.83" pos="196.47" lane="e0_0" slope="0.00"/>
    </timestep>
    <timestep time="39.50">
        <vehicle id="background.1" x="305.73" y="-1.60" angle="90.00" type="human" speed="13.64" pos="5.73" lane="e1_0" slope="0.00"/>
        <vehicle id="background.2" x="203.25" y="-1.60" angle="90.00" type="human" speed="13.57" pos="203.25" lane="e0_0" slope="0.00"/>
    </timestep>
    <timestep time="40.00">
        <vehicle id="background.1" x="312.57" y="-1.60" angle="90.00" type="human" speed="13.69" pos="12.57" lane="e1_0" slope="0.00"/>
        <vehicle id="background.2" x="210.17" y="-1.60" angle="90.00" type="human" speed="13.84" pos="210.17" lane="e0_0" slope="0.00"/>
    </timestep>
    <timestep time="40.50">
        <vehicle id="background.1" x="319.49" y="-1.60" angle="90.00" type="human" speed="13.83" pos="19.49" lane="e1_0" slope="0.00"/>
        <vehicle id="background.2" x="217.09" y="-1.60" angle="90.00" type="human" speed="13.83" pos="217.09" lane="e0_0" slope="0.00"/>
    </timestep>
    <timestep time="41.00">
        <vehicle id="background.1" x="326.41" y="-1.60" angle="90.00" type="human" speed="13.85" pos="26.41" lane="e1_0" slope="0.00"/>
        <vehicle id="background.2" x="224.02" y="-1.60" angle="90.00" type="human" speed="13.86" pos="224.02" lane="e0_0" slope="0.00"/>
    </timestep>
    <timestep time="41.50">
        <vehicle id="background.1" x="333.26" y="-1.60" angle="90.00" type="human" speed="13.70" pos="33.26" lane="e1_0" slope="0.00"/>
        <vehicle id="background.2" x="230.84" y="-1.60" angle="90.00" type="human" speed="13.65" pos="230.84" lane="e0_0" slope="0.00"/>
    </timestep>
    <timestep time="42.00">
        <vehicle id="background.1" x="340.12" y="-1.60" angle="90.00" type="human" speed="13.72" pos="40.12" lane="e1_0" slope="0.00"/>
        <vehicle id="background.2" x="237.70" y="-1.60" angle="90.00" type="human" speed="13.71" pos="237.70" lane="e0_0" slope="0.00"/>
    </timestep>
    <timestep time="42.50">
        <vehicle id="background.1" x="346.96" y="-1.60" angle="90.00" type="human" speed="13.69" pos="46.96" lane="e1_0" slope="0.00"/>
        <vehicle id="background.2" x="244.48" y="-1.60" angle="90.00" type="human" speed="13.56" pos="244.48" lane="e0_0" slope="0.00"/>
    </timestep>
    <timestep time="43.00">
        <vehicle id="background.2" x="251.38" y="-1.60" angle="90.00" type="human" speed="13.79" pos="251.38" lane="e0_0" slope="0.00"/>
    </timestep>
    <timestep time="43.50">
        <vehicle id="background.2" x="258.27" y="-1.60" angle="90.00" type="human" speed="13.79" pos="258.27" lane="e0_0" slope="0.00"/>
    </timestep>
    <timestep time="44.00">
        <vehicle id="background.2" x="265.19" y="-1.60" angle="90.00" type="human" speed="13.85" pos="265.19" lane="e0_0" slope="0.00"/>
    </timestep>
    <timestep time="44.50">
        <vehicle id="background.2" x="272.07" y="-1.60" angle="90.00" type="human" speed="13.75" pos="272.07" lane="e0_0" slope="0.00"/>
    </timestep>
    <timestep time="45.00">
        <vehicle id="background.2" x="278.79" y="-1.60" angle="90.00" type="human" speed="13.44" pos="278.79" lane="e0_0" slope="0.00"/>
    </timestep>
    <timestep time="45.50">
        <vehicle id="background.2" x="284.81" y="-1.60" angle="90.00" type="human" speed="12.05" pos="284.81" lane="e0_0" slope="0.00"/>
    </timestep>
    <timestep time="46.00">
        <vehicle id="background.2" x="289.78" y="-1.60" angle="90.00" type="human" speed="9.93" pos="289.78" lane="e0_0" slope="0.00"/>
    </timestep>
    <timestep time="46.50">
        <vehicle id="background.2" x="293.63" y="-1.60" angle="90.00" type="human" speed="7.70" pos="293.63" lane="e0_0" slope="0.00"/>
    </timestep>
    <timestep time="47.00">
        <vehicle id="background.2" x="296.35" y="-1.60" angle="90.00" type="human" speed="5.45" pos="296.35" lane="e0_0" slope="0.00"/>
    </timestep>
    <timestep time="47.50">
        <vehicle id="background.2" x="298.18" y="-1.60" angle="90.00" type="human" speed="3.66" pos="298.18" lane="e0_0" slope="0.00"/>
    </timestep>
    <timestep time="48.00">
        <vehicle id="background.2" x="298.98" y="-1.60" angle="90.00" type="human" speed="1.60" pos="298.98" lane="e0_0" slope="0.00"/>
    </timestep>
    <timestep time="48.50">
        <vehicle id="background.2" x="299.00" y="-1.60" angle="90.00" type="human" speed="0.04" pos="299.00" lane="e0_0" slope="0.00"/>
    </timestep>
    <timestep time="49.00">
        <vehicle id="background.2" x="299.00" y="-1.60" angle="90.00" type="human" speed="0.00" pos="299.00" lane="e0_0" slope="0.00"/>
    </timestep>
    <timestep time="49.50">
        <vehicle id="background.2" x="299.00" y="-1.60" angle="90.00" type="human" speed="0.00" pos="299.00" lane="e0_0" slope="0.00"/>
    </timestep>
    <timestep time="50.00">
        <vehicle id="background.2" x="299.00" y="-1.60" angle="90.00" type="human" speed="0.00" pos="299.00" lane="e0_0" slope="0.00"/>
    </timestep>
    <timestep time="50.50">
        <vehicle id="background.2" x="299.00" y="-1.60" angle="90.00" type="human" speed="0.00" pos="299.00" lane="e0_0" slope="0.00"/>
    </timestep>
    <timestep time="51.00">
        <vehicle id="background.2" x="299.00" y="-1.60" angle="90.00" type="human" speed="0.00" pos="299.00" lane="e0_0" slope="0.00"/>
    </timestep>
    <timestep time="51.50">
        <vehicle id="background.2" x="299.00" y="-1.60" angle="90.00" type="human" speed="0.00" pos="299.00" lane="e0_0" slope="0.00"/>
    </timestep>
    <timestep time="52.00">
        <vehicle id="background.2" x="299.00" y="-1.60" angle="90.00" type="human" speed="0.00" pos="299.00" lane="e0_0" slope="0.00"/>
    </timestep>
    <timestep time="52.50">
        <vehicle id="background.2" x="299.00" y="-1.60" angle="90.00" type="human" speed="0.00" pos="299.00" lane="e0_0" slope="0.00"/>
        <vehicle id="background.3" x="5.10" y="-1.60" angle="90.00" type="human" speed="12.46" pos="5.10" lane="e0_0" slope="0.00"/>
    </timestep>
    <timestep time="53.00">
        <vehicle id="background.2" x="299.00" y="-1.60" angle="90.00" type="human" speed="0.00" pos="299.00" lane="e0_0" slope="0.00"/>
        <vehicle id="background.3" x="11.26" y="-1.60" angle="90.00" type="human" speed="12.32" pos="11.26" lane="e0_0" slope="0.00"/>
    </timestep>
    <timestep time="53.50">
        <vehicle id="background.2" x="299.00" y="-1.60" angle="90.00" type="human" speed="0.00" pos="299.00" lane="e0_0" slope="0.00"/>
        <vehicle id="background.3" x="17.39" y="-1.60" angle="90.00" type="human" speed="12.25" pos="17.39" lane="e0_0" slope="0.00"/>
    </timestep>
    <timestep time="54.00">
        <vehicle id="background.2" x="299.00" y="-1.60" angle="90.00" type="human" speed="0.00" pos="299.00" lane="e0_0" slope="0.00"/>
        <vehicle id="background.3" x="23.40" y="-1.60" angle="90.00" type="human" speed="12.03" pos="23.40" lane="e0_0" slope="0.00"/>
    </timestep>
    <timestep time="54.50">
        <vehicle id="background.2" x="299.00" y="-1.60" angle="90.00" type="human" speed="0.00" pos="299.00" lane="e0_0" slope="0.00"/>
        <vehicle id="background.3" x="29.53" y="-1.60" angle="90.00" type="human" speed="12.26" pos="29.53" lane="e0_0" slope="0.00"/>
    </timestep>
    <timestep time="55.00">