<?xml version="1.0" encoding="UTF-8"?>

<!-- generated on 2026-05-14 17:06:07 by Eclipse SUMO sumo Version 1.24.0
<sumoConfiguration xmlns:xsi="http://www.w3.org/2001/XMLSchema-instance" xsi:noNamespaceSchemaLocation="http://sumo.dlr.de/xsd/sumoConfiguration.xsd">

    <input>
        <net-file value="scenarios/simple_arterial/simple_arterial.net.xml"/>
        <route-files value="scenarios/simple_arterial/simple_arterial_glosa.rou.xml"/>
        <additional-files value="scenarios/simple_arterial/simple_arterial.tls.xml"/>
    </input>

    <output>
        <fcd-output value="runs/fcd_expert_glosa/episode_00040_seed_82.fcd.xml"/>
    </output>

    <time>
        <begin value="0"/>
        <end value="900"/>
        <step-length value="0.5"/>
    </time>

    <report>
        <no-warnings value="true"/>
    </report>

    <traci_server>
        <remote-port value="37703"/>
    </traci_server>

    <random_number>
        <seed value="82"/>
    </random_number>

</sumoConfiguration>
-->

<fcd-export xmlns:xsi="http://www.w3.org/2001/XMLSchema-instance" xsi:noNamespaceSchemaLocation="http://sumo.dlr.de/xsd/fcd_file.xsd">
    <timestep time="0.00"/>
    <timestep time="0.50"/>
    <timestep time="1.00"/>
    <timestep time="1.50"/>
    <timestep time="2.00"/>
    <timestep time="2.50"/>
    <timestep time="3.00"/>
    <timestep time="3.50"/>
    <timestep time="4.00"/>
    <timestep time="4.50"/>
    <timestep time="5.00"/>
    <timestep time="5.50"/>
    <timestep time="6.00"/>
    <timestep time="6.50"/>
    <timestep time="7.00"/>
    <timestep time="7.50"/>
    <timestep time="8.00"/>
    <timestep time="8.50"/>
    <timestep time="9.00"/>
    <timestep time="9.50"/>
    <timestep time="10.00"/>
    <timestep time="10.50"/>
    <timestep time="11.00"/>
    <timestep time="11.50"/>
    <timestep time="12.00"/>
    <timestep time="12.50"/>
    <timestep time="13.00"/>
    <timestep time="13.50"/>
    <timestep time="14.00"/>
    <timestep time="14.50"/>
    <timestep time="15.00"/>
    <timestep time="15.50"/>
    <timestep time="16.00"/>
    <timestep time="16.50"/>
    <timestep time="17.00"/>
    <timestep time="17.50"/>
    <timestep time="18.00"/>
    <timestep time="18.50"/>
    <timestep time="19.00"/>
    <timestep time="19.50"/>
    <timestep time="20.00"/>
    <timestep time="20.50"/>
    <timestep time="21.00"/>
    <timestep time="21.50"/>
    <timestep time="22.00"/>
    <timestep time="22.50"/>
    <timestep time="23.00"/>
    <timestep time="23.50"/>
    <timestep time="24.00"/>
    <timestep time="24.50"/>
    <timestep time="25.00">
        <vehicle id="background.0" x="5.10" y="-1.60" angle="90.00" type="human" speed="13.56" pos="5.10" lane="e0_0" slope="0.00"/>
    </timestep>
    <timestep time="25.50">
        <vehicle id="background.0" x="11.81" y="-1.60" angle="90.00" type="human" speed="13.43" pos="11.81" lane="e0_0" slope="0.00"/>
    </timestep>
    <timestep time="26.00">
        <vehicle id="background.0" x="18.45" y="-1.60" angle="90.00" type="human" speed="13.27" pos="18.45" lane="e0_0" slope="0.00"/>
    </timestep>
    <timestep time="26.50">
        <vehicle id="background.0" x="25.06" y="-1.60" angle="90.00" type="human" speed="13.21" pos="25.06" lane="e0_0" slope="0.00"/>
    </timestep>
    <timestep time="27.00">
        <vehicle id="background.0" x="31.63" y="-1.60" angle="90.00" type="human" speed="13.14" pos="31.63" lane="e0_0" slope="0.00"/>
    </timestep>
    <timestep time="27.50">
        <vehicle id="background.0" x="38.24" y="-1.60" angle="90.00" type="human" speed="13.22" pos="38.24" lane="e0_0" slope="0.00"/>
    </timestep>
    <timestep time="28.00">
        <vehicle id="background.0" x="44.79" y="-1.60" angle="90.00" type="human" speed="13.10" pos="44.79" lane="e0_0" slope="0.00"/>
    </timestep>
    <timestep time="28.50">
        <vehicle id="background.0" x="51.37" y="-1.60" angle="90.00" type="human" speed="13.17" pos="51.37" lane="e0_0" slope="0.00"/>
    </timestep>
    <timestep time="29.00">
        <vehicle id="background.0" x="58.08" y="-1.60" angle="90.00" type="human" speed="13.42" pos="58.08" lane="e0_0" slope="0.00"/>
    </timestep>
    <timestep time="29.50">
        <vehicle id="background.0" x="64.65" y="-1.60" angle="90.00" type="human" speed="13.14" pos="64.65" lane="e0_0" slope="0.00"/>
    </timestep>
    <timestep time="30.00">
        <vehicle id="background.0" x="71.41" y="-1.60" angle="90.00" type="human" speed="13.52" pos="71.41" lane="e0_0" slope="0.00"/>
    </timestep>
    <timestep time="30.50">
        <vehicle id="background.0" x="78.10" y="-1.60" angle="90.00" type="human" speed="13.38" pos="78.10" lane="e0_0" slope="0.00"/>
    </timestep>
    <timestep time="31.00">
        <vehicle id="background.0" x="84.78" y="-1.60" angle="90.00" type="human" speed="13.36" pos="84.78" lane="e0_0" slope="0.00"/>
    </timestep>
    <timestep time="31.50">
        <vehicle id="background.0" x="91.46" y="-1.60" angle="90.00" type="human" speed="13.36" pos="91.46" lane="e0_0" slope="0.00"/>
    </timestep>
    <timestep time="32.00">
        <vehicle id="background.0" x="98.18" y="-1.60" angle="90.00" type="human" speed="13.45" pos="98.18" lane="e0_0" slope="0.00"/>
    </timestep>
    <timestep time="32.50">
        <vehicle id="background.0" x="104.78" y="-1.60" angle="90.00" type="human" speed="13.18" pos="104.78" lane="e0_0" slope="0.00"/>
    </timestep>
    <timestep time="33.00">
        <vehicle id="background.0" x="111.40" y="-1.60" angle="90.00" type="human" speed="13.25" pos="111.40" lane="e0_0" slope="0.00"/>
    </timestep>
    <timestep time="33.50">
        <vehicle id="background.0" x="118.11" y="-1.60" angle="90.00" type="human" speed="13.41" pos="118.11" lane="e0_0" slope="0.00"/>
    </timestep>
    <timestep time="34.00">
        <vehicle id="background.0" x="124.89" y="-1.60" angle="90.00" type="human" speed="13.55" pos="124.89" lane="e0_0" slope="0.00"/>
    </timestep>
    <timestep time="34.50">
        <vehicle id="background.0" x="131.59" y="-1.60" angle="90.00" type="human" speed="13.41" pos="131.59" lane="e0_0" slope="0.00"/>
    </timestep>
    <timestep time="35.00">
        <vehicle id="background.0" x="138.36" y="-1.60" angle="90.00" type="human" speed="13.55" pos="138.36" lane="e0_0" slope="0.00"/>
    </timestep>
    <timestep time="35.50">
        <vehicle id="background.0" x="145.00" y="-1.60" angle="90.00" type="human" speed="13.27" pos="145.00" lane="e0_0" slope="0.00"/>
    </timestep>
    <timestep time="36.00">
        <vehicle id="background.0" x="151.66" y="-1.60" angle="90.00" type="human" speed="13.32" pos="151.66" lane="e0_0" slope="0.00"/>
    </timestep>
    <timestep time="36.50">
        <vehicle id="background.0" x="158.42" y="-1.60" angle="90.00" type="human" speed="13.53" pos="158.42" lane="e0_0" slope="0.00"/>
    </timestep>
    <timestep time="37.00">
        <vehicle id="background.0" x="165.00" y="-1.60" angle="90.00" type="human" speed="13.16" pos="165.00" lane="e0_0" slope="0.00"/>
    </timestep>
    <timestep time="37.50">
        <vehicle id="background.0" x="171.68" y="-1.60" angle="90.00" type="human" speed="13.36" pos="171.68" lane="e0_0" slope="0.00"/>
    </timestep>
    <timestep time="38.00">
        <vehicle id="background.0" x="178.39" y="-1.60" angle="90.00" type="human" speed="13.43" pos="178.39" lane="e0_0" slope="0.00"/>
    </timestep>
    <timestep time="38.50">
        <vehicle id="background.0" x="184.96" y="-1.60" angle="90.00" type="human" speed="13.14" pos="184.96" lane="e0_0" slope="0.00"/>
    </timestep>
    <timestep time="39.00">
        <vehicle id="background.0" x="191.65" y="-1.60" angle="90.00" type="human" speed="13.38" pos="191.65" lane="e0_0" slope="0.00"/>
    </timestep>
    <timestep time="39.50">
        <vehicle id="background.0" x="198.30" y="-1.60" angle="90.00" type="human" speed="13.29" pos="198.30" lane="e0_0" slope="0.00"/>
    </timestep>
    <timestep time="40.00">
        <vehicle id="background.0" x="205.05" y="-1.60" angle="90.00" type="human" speed="13.49" pos="205.05" lane="e0_0" slope="0.00"/>
    </timestep>
    <timestep time="40.50">
        <vehicle id="background.0" x="211.79" y="-1.60" angle="90.00" type="human" speed="13.49" pos="211.79" lane="e0_0" slope="0.00"/>
    </timestep>
    <timestep time="41.00">
        <vehicle id="background.0" x="218.47" y="-1.60" angle="90.00" type="human" speed="13.36" pos="218.47" lane="e0_0" slope="0.00"/>
    </timestep>
    <timestep time="41.50">
        <vehicle id="background.0" x="225.15" y="-1.60" angle="90.00" type="human" speed="13.35" pos="225.15" lane="e0_0" slope="0.00"/>
    </timestep>
    <timestep time="42.00">
        <vehicle id="background.0" x="231.76" y="-1.60" angle="90.00" type="human" speed="13.23" pos="231.76" lane="e0_0" slope="0.00"/>
    </timestep>
    <timestep time="42.50">
        <vehicle id="background.0" x="238.33" y="-1.60" angle="90.00" type="human" speed="13.14" pos="238.33" lane="e0_0" slope="0.00"/>
    </timestep>
    <timestep time="43.00">
        <vehicle id="background.0" x="245.05" y="-1.60" angle="90.00" type="human" speed="13.43" pos="245.05" lane="e0_0" slope="0.00"/>
    </timestep>
    <timestep time="43.50">
        <vehicle id="background.0" x="251.74" y="-1.60" angle="90.00" type="human" speed="13.38" pos="251.74" lane="e0_0" slope="0.00"/>
    </timestep>
    <timestep time="44.00">
        <vehicle id="background.0" x="258.41" y="-1.60" angle="90.00" type="human" speed="13.34" pos="258.41" lane="e0_0" slope="0.00"/>
        <vehicle id="background.1" x="5.10" y="-1.60" angle="90.00" type="human" speed="13.89" pos="5.10" lane="e0_0" slope="0.00"/>
    </timestep>
    <timestep time="44.50">
        <vehicle id="background.0" x="264.96" y="-1.60" angle="90.00" type="human" speed="13.10" pos="264.96" lane="e0_0" slope="0.00"/>
        <vehicle id="background.1" x="11.87" y="-1.60" angle="90.00" type="human" speed="13.54" pos="11.87" lane="e0_0" slope="0.00"/>
    </timestep>
    <timestep time="45.00">
        <vehicle id="background.0" x="271.69" y="-1.60" angle="90.00" type="human" speed="13.46" pos="271.69" lane="e0_0" slope="0.00"/>
        <vehicle id="background.1" x="18.75" y="-1.60" angle="90.00" type="human" speed="13.75" pos="18.75" lane="e0_0" slope="0.00"/>
    </timestep>
    <timestep time="45.50">
        <vehicle id="background.0" x="278.46" y="-1.60" angle="90.00" type="human" speed="13.54" pos="278.46" lane="e0_0" slope="0.00"/>
        <vehicle id="background.1" x="25.66" y="-1.60" angle="90.00" type="human" speed="13.81" pos="25.66" lane="e0_0" slope="0.00"/>
    </timestep>
    <timestep time="46.00">
        <vehicle id="background.0" x="284.64" y="-1.60" angle="90.00" type="human" speed="12.35" pos="284.64" lane="e0_0" slope="0.00"/>
        <vehicle id="background.1" x="32.44" y="-1.60" angle="90.00" type="human" speed="13.58" pos="32.44" lane="e0_0" slope="0.00"/>
    </timestep>
    <timestep time="46.50">
        <vehicle id="background.0" x="289.69" y="-1.60" angle="90.00" type="human" speed="10.10" pos="289.69" lane="e0_0" slope="0.00"/>
        <vehicle id="background.1" x="39.18" y="-1.60" angle="90.00" type="human" speed="13.48" pos="39.18" lane="e0_0" slope="0.00"/>
    </timestep>
    <timestep time="47.00">
        <vehicle id="background.0" x="293.64" y="-1.60" angle="90.00" type="human" speed="7.89" pos="293.64" lane="e0_0" slope="0.00"/>
        <vehicle id="background.1" x="46.11" y="-1.60" angle="90.00" type="human" speed="13.84" pos="46.11" lane="e0_0" slope="0.00"/>
    </timestep>
    <timestep time="47.50">
        <vehicle id="background.0" x="296.46" y="-1.60" angle="90.00" type="human" speed="5.64" pos="296.46" lane="e0_0" slope="0.00"/>
        <vehicle id="background.1" x="52.92" y="-1.60" angle="90.00" type="human" speed="13.64" pos="52.92" lane="e0_0" slope="0.00"/>
    </timestep>
    <timestep time="48.00">
        <vehicle id="background.0" x="298.16" y="-1.60" angle="90.00" type="human" speed="3.39" pos="298.16" lane="e0_0" slope="0.00"/>
        <vehicle id="background.1" x="59.82" y="-1.60" angle="90.00" type="human" speed="13.78" pos="59.82" lane="e0_0" slope="0.00"/>
    </timestep>
    <timestep time="48.50">
        <vehicle id="background.0" x="298.95" y="-1.60" angle="90.00" type="human" speed="1.59" pos="298.95" lane="e0_0" slope="0.00"/>
        <vehicle id="background.1" x="66.76" y="-1.60" angle="90.00" type="human" speed="13.88" pos="66.76" lane="e0_0" slope="0.00"/>
    </timestep>
    <timestep time="49.00">
        <vehicle id="background.0" x="298.99" y="-1.60" angle="90.00" type="human" speed="0.07" pos="298.99" lane="e0_0" slope="0.00"/>
        <vehicle id="background.1" x="73.46" y="-1.60" angle="90.00" type="human" speed="13.42" pos="73.46" lane="e0_0" slope="0.00"/>
    </timestep>
    <timestep time="49.50">
        <vehicle id="background.0" x="299.00" y="-1.60" angle="90.00" type="human" speed="0.02" pos="299.00" lane="e0_0" slope="0.00"/>
        <vehicle id="background.1" x="80.33" y="-1.60" angle="90.00" type="human" speed="13.74" pos="80.33" lane="e0_0" slope="0.00"/>
    </timestep>
    <timestep time="50.00">
        <vehicle id="background.0" x="299.00" y="-1.60" angle="90.00" type="human" speed="0.00" pos="299.00" lane="e0_0" slope="0.00"/>
        <vehicle id="background.1" x="87.10" y="-1.60" angle="90.00" type="human" speed="13.53" pos="87.10" lane="e0_0" slope="0.00"/>
        <vehicle id="background.2" x="5.10" y="-1.60" angle="90.00" type="human" speed="13.89" pos="5.10" lane="e0_0" slope="0.00"/>
    </timestep>
    <timestep time="50.50">
        <vehicle id="background.0" x="299.00" y="-1.60" angle="90.00" type="human" speed="0.00" pos="299.00" lane="e0_0" slope="0.00"/>
        <vehicle id="background.1" x="93.94" y="-1.60" angle="90.00" type="human" speed="13.69" pos="93.94" lane="e0_0" slope="0.00"/>
        <vehicle id="background.2" x="11.80" y="-1.60" angle="90.00" type="human" speed="13.40" pos="11.80" lane="e0_0" slope="0.00"/>
    </timestep>
    <timestep time="51.00">
        <vehicle id="background.0" x="299.00" y="-1.60" angle="90.00" type="human" speed="0.00" pos="299.00" lane="e0_0" slope="0.00"/>
        <vehicle id="background.1" x="100.86" y="-1.60" angle="90.00" type="human" speed="13.83" pos="100.86" lane="e0_0" slope="0.00"/>
        <vehicle id="background.2" x="18.72" y="-1.60" angle="90.00" type="human" speed="13.83" pos="18.72" lane="e0_0" slope="0.00"/>
    </timestep>
    <timestep time="51.50">
        <vehicle id="background.0" x="299.00" y="-1.60" angle="90.00" type="human" speed="0.00" pos="299.00" lane="e0_0" slope="0.00"/>
        <vehicle id="background.1" x="107.65" y="-1.60" angle="90.00" type="human" speed="13.59" pos="107.65" lane="e0_0" slope="0.00"/>
        <vehicle id="background.2" x="25.42" y="-1.60" angle="90.00" type="human" speed="13.40" pos="25.42" lane="e0_0" slope="0.00"/>
    </timestep>
    <timestep time="52.00">
        <vehicle id="background.0" x="299.00" y="-1.60" angle="90.00" type="human" speed="0.00" pos="299.00" lane="e0_0" slope="0.00"/>
        <vehicle id="background.1" x="114.35" y="-1.60" angle="90.00" type="human" speed="13.39" pos="114.35" lane="e0_0" slope="0.00"/>
        <vehicle id="background.2" x="32.17" y="-1.60" angle="90.00" type="human" speed="13.52" pos="32.17" lane="e0_0" slope="0.00"/>
    </timestep>
    <timestep time="52.50">
        <vehicle id="background.0" x="299.00" y="-1.60" angle="90.00" type="human" speed="0.00" pos="299.00" lane="e0_0" slope="0.00"/>
        <vehicle id="background.1" x="121.20" y="-1.60" angle="90.00" type="human" speed="13.70" pos="121.20" lane="e0_0" slope="0.00"/>
        <vehicle id="background.2" x="39.08" y="-1.60" angle="90.00" type="human" speed="13.82" pos="39.08" lane="e0_0" slope="0.00"/>
    </timestep>
    <timestep time="53.00">
        <vehicle id="background.0" x="299.00" y="-1.60" angle="90.00" type="human" speed="0.00" pos="299.00" lane="e0_0" slope="0.00"/>
        <vehicle id="background.1" x="127.97" y="-1.60" angle="90.00" type="human" speed="13.53" pos="127.97" lane="e0_0" slope="0.00"/>
        <vehicle id="background.2" x="45.94" y="-1.60" angle="90.00" type="human" speed="13.72" pos="45.94" lane="e0_0" slope="0.00"/>
    </timestep>
    <timestep time="53.50">
        <vehicle id="background.0" x="299.00" y="-1.60" angle="90.00" type="human" speed="0.00" pos="299.00" lane="e0_0" slope="0.00"/>
        <vehicle id="background.1" x="134.74" y="-1.60" angle="90.00" type="human" speed="13.55" pos="134.74" lane="e0_0" slope="0.00"/>
        <vehicle id="background.2" x="52.74" y="-1.60" angle="90.00" type="human" speed="13.58" pos="52.74" lane="e0_0" slope="0.00"/>
    </timestep>
    <timestep time="54.00">
        <vehicle id="background.0" x="299.00" y="-1.60" angle="90.00" type="human" speed="0.00" pos="299.00" lane="e0_0" slope="0.00"/>
        <vehicle id="background.1" x="141.56" y="-1.60" angle="90.00" type="human" speed="13.64" pos="141.56" lane="e0_0" slope="0.00"/>
        <vehicle id="background.2" x="59.62" y="-1.60" angle="90.00" type="human" speed="13.78" pos="59.62" lane="e0_0" slope="0.00"/>
    </timestep>
    <timestep time="54.50">
        <vehicle id="background.0" x="299.00" y="-1.60" angle="90.00" type="human" speed="0.00" pos="299.00" lane="e0_0" slope="0.00"/>
        <vehicle id="background.1" x="148.51" y="-1.60" angle="90.00" type="human" speed="13.89" pos="148.51" lane="e0_0" slope="0.00"/>
        <vehicle id="background.2" x="66.39" y="-1.60" angle="90.00" type="human" speed="13.52" pos="66.39" lane="e0_0" slope="0.00"/>
    </timestep>
    <timestep time="55.00">
        <vehicle id="background.0" x="299.00" y="-1.60" angle="90.00" type="human" speed="0.00" pos="299.00" lane="e0_0" slope="0.00"/>
        <vehicle id="background.1" x="155.23" y="-1.60" angle="90.00" type="human" speed="13.44" pos="155.23" lane="e0_0" slope="0.00"/>
        <vehicle id="background.2" x="73.10" y="-1.60" angle="90.00" type="human" speed="13.43" pos="73.10" lane="e0_0" slope="0.00"/>
    </timestep>
    <timestep time="55.50">
        <vehicle id="background.0" x="299.00" y="-1.60" angle="90.00" type="human" speed="0.00" pos="299.00" lane="e0_0" slope="0.00"/>
        <vehicle id="background.1" x="162.01" y="-1.60" angle="90.00" type="human" speed="13.56" pos="162.01" lane="e0_0" slope="0.00"/>
        <vehicle id="background.2" x="79.86" y="-1.60" angle="90.00" type="human" speed="13.51" pos="79.86" lane="e0_0" slope="0.00"/>
    </timestep>
    <timestep time="56.00">
        <vehicle id="background.0" x="299.00" y="-1.60" angle="90.00" type="human" speed="0.00" pos="299.00" lane="e0_0" slope="0.00"/>
        <vehicle id="background.1" x="168.80" y="-1.60" angle="90.00" type="human" speed="13.58" pos="168.80" lane="e0_0" slope="0.00"/>
        <vehicle id="background.2" x="86.56" y="-1.60" angle="90.00" type="human" speed="13.41" pos="86.56" lane="e0_0" slope="0.00"/>
    </timestep>
    <timestep time="56.50">
        <vehicle id="background.0" x="299.00" y="-1.60" angle="90.00" type="human" speed="0.00" pos="299.00" lane="e0_0" slope="0.00"/>
        <vehicle id="background.1" x="175.51" y="-1.60" angle="90.00" type="human" speed="13.42" pos="175.51" lane="e0_0" slope="0.00"/>
        <vehicle id="background.2" x="93.29" y="-1.60" angle="90.00" type="human" speed="13.45" pos="93.29" lane="e0_0" slope="0.00"/>
    </timestep>
    <timestep time="57.00">
        <vehicle id="background.0" x="299.00" y="-1.60" angle="90.00" type="human" speed="0.00" pos="299.00" lane="e0_0" slope="0.00"/>
        <vehicle id="background.1" x="182.36" y="-1.60" angle="90.00" type="human" speed="13.71" pos="182.36" lane="e0_0" slope="0.00"/>
        <vehicle id="background.2" x="100.16" y="-1.60" angle="90.00" type="human" speed="13.75" pos="100.16" lane="e0_0" slope="0.00"/>
    </timestep>
    <timestep time="57.50">
        <vehicle id="background.0" x="299.00" y="-1.60" angle="90.00" type="human" speed="0.00" pos="299.00" lane="e0_0" slope="0.00"/>
        <vehicle id="background.1" x="189.13" y="-1.60" angle="90.00" type="human" speed="13.53" pos="189.13" lane="e0_0" slope="0.00"/>
        <vehicle id="background.2" x="107.09" y="-1.60" angle="90.00" type="human" speed="13.86" pos="107.09" lane="e0_0" slope="0.00"/>
    </timestep>
    <timestep time="58.00">
        <vehicle id="background.0" x="299.00" y="-1.60" angle="90.00" type="human" speed="0.00" pos="299.00" lane="e0_0" slope="0.00"/>
        <vehicle id="background.1" x="196.00" y="-1.60" angle="90.00" type="human" speed="13.74" pos="196.00" lane="e0_0" slope="0.00"/>
        <vehicle id="background.2" x="113.88" y="-1.60" angle="90.00" type="human" speed="13.58" pos="113.88" lane="e0_0" slope="0.00"/>
    </timestep>
    <timestep time="58.50">
        <vehicle id="background.0" x="299.00" y="-1.60" angle="90.00" type="human" speed="0.00" pos="299.00" lane="e0_0" slope="0.00"/>
        <vehicle id="background.1" x="202.75" y="-1.60" angle="90.00" type="human" speed="13.50" pos="202.75" lane="e0_0" slope="0.00"/>
        <vehicle id="background.2" x="120.73" y="-1.60" angle="90.00" type="human" speed="13.70" pos="120.73" lane="e0_0" slope="0.00"/>
    </timestep>
    <timestep time="59.00">
        <vehicle id="background.0" x="299.00" y="-1.60" angle="90.00" type="human" speed="0.00" pos="299.00" lane="e0_0" slope="0.00"/>
        <vehicle id="background.1" x="209.57" y="-1.60" angle="90.00" type="human" speed="13.65" pos="209.57" lane="e0_0" slope="0.00"/>
        <vehicle id="background.2" x="127.61" y="-1.60" angle="90.00" type="human" speed="13.76" pos="127.61" lane="e0_0" slope="0.00"/>
    </timestep>
    <timestep time="59.50">
        <vehicle id="background.0" x="299.00" y="-1.60" angle="90.00" type="human" speed="0.00" pos="299.00" lane="e0_0" slope="0.00"/>
        <vehicle id="background.1" x="216.32" y="-1.60" angle="90.00" type="human" speed="13.50" pos="216.32" lane="e0_0" slope="0.00"/>
        <vehicle id="background.2" x="134.49" y="-1.60" angle="90.00" type="human" speed="13.77" pos="134.49" lane="e0_0" slope="0.00"/>
    </timestep>
    <timestep time="60.00">
        <vehicle id="background.0" x="299.00" y="-1.60" angle="90.00" type="human" speed="0.00" pos="299.00" lane="e0_0" slope="0.00"/>
        <vehicle id="background.1" x="223.05" y="-1.60" angle="90.00" type="human" speed="13.44" pos="223.05" lane="e0_0" slope="0.00"/>
        <vehicle id="background.2" x="141.36" y="-1.60" angle="90.00" type="human" speed="13.74" pos="141.36" lane="e0_0" slope="0.00"/>
    </timestep>
    <timestep time="60.50">
        <vehicle id="background.0" x="299.00" y="-1.60" angle="90.00" type="human" speed="0.00" pos="299.00" lane="e0_0" slope="0.00"/>
        <vehicle id="background.1" x="229.94" y="-1.60" angle="90.00" type="human" speed="13.79" pos="229.94" lane="e0_0" slope="0.00"/>
        <vehicle id="background.2" x="148.11" y="-1.60" angle="90.00" type="human" speed="13.49" pos="148.11" lane="e0_0" slope="0.00"/>
    </timestep>
    <timestep time="61.00">
        <vehicle id="background.0" x="299.00" y="-1.60" angle="90.00" type="human" speed="0.00" pos="299.00" lane="e0_0" slope="0.00"/>
        <vehicle id="background.1" x="236.74" y="-1.60" angle="90.00" type="human" speed="13.61" pos="236.74" lane="e0_0" slope="0.00"/>
        <vehicle id="background.2" x="154.91" y="-1.60" angle="90.00" type="human" speed="13.62" pos="154.91" lane="e0_0" slope="0.00"/>
    </timestep>
    <timestep time="61.50">
        <vehicle id="background.0" x="299.00" y="-1.60" angle="90.00" type="human" speed="0.00" pos="299.00" lane="e0_0" slope="0.00"/>
        <vehicle id="background.1" x="243.69" y="-1.60" angle="90.00" type="human" speed="13.88" pos="243.69" lane="e0_0" slope="0.00"/>
        <vehicle id="background.2" x="161.85" y="-1.60" angle="90.00" type="human" speed="13.88" pos="161.85" lane="e0_0" slope="0.00"/>
    </timestep>
    <timestep time="62.00">
        <vehicle id="background.0" x="299.00" y="-1.60" angle="90.00" type="human" speed="0.00" pos="299.00" lane="e0_0" slope="0.00"/>
        <vehicle id="background.1" x="250.55" y="-1.60" angle="90.00" type="human" speed="13.72" pos="250.55" lane="e0_0" slope="0.00"/>
        <vehicle id="background.2" x="168.66" y="-1.60" angle="90.00" type="human" speed="13.61" pos="168.66" lane="e0_0" slope="0.00"/>
    </timestep>
    <timestep time="62.50">
        <vehicle id="background.0" x="299.00" y="-1.60" angle="90.00" type="human" speed="0.00" pos="299.00" lane="e0_0" slope="0.00"/>
        <vehicle id="background.1" x="257.35" y="-1.60" angle="90.00" type="human" speed="13.60" pos="257.35" lane="e0_0" slope="0.00"/>
        <vehicle id="background.2" x="175.46" y="-1.60" angle="90.00" type="human" speed="13.61" pos="175.46" lane="e0_0" slope="0.00"/>
    </timestep>
    <timestep time="63.00">
        <vehicle id="background.0" x="299.00" y="-1.60" angle="90.00" type="human" speed="0.00" pos="299.00" lane="e0_0" slope="0.00"/>
        <vehicle id="background.1" x="264.24" y="-1.60" angle="90.00" type="human" speed="13.79" pos="264.24" lane="e0_0" slope="0.00"/>
        <vehicle id="background.2" x="182.22" y="-1.60" angle="90.00" type="human" speed="13.52" pos="182.22" lane="e0_0" slope="0.00"/>
    </timestep>
    <timestep time="63.50">
        <vehicle id="background.0" x="299.00" y="-1.60" angle="90.00" type="human" speed="0.00" pos="299.00" lane="e0_0" slope="0.00"/>
        <vehicle id="background.1" x="270.39" y="-1.60" angle="90.00" type="human" speed="12.30" pos="270.39" lane="e0_0" slope="0.00"/>
        <vehicle id="background.2" x="188.96" y="-1.60" angle="90.00" type="human" speed="13.47" pos="188.96" lane="e0_0" slope="0.00"/>
    </timestep>
    <timestep time="64.00">
        <vehicle id="background.0" x="299.00" y="-1.60" angle="90.00" type="human" speed="0.00" pos="299.00" lane="e0_0" slope="0.00"/>
        <vehicle id="background.1" x="275.75" y="-1.60" angle="90.00" type="human" speed="10.71" pos="275.75" lane="e0_0" slope="0.00"/>
        <vehicle id="background.2" x="195.71" y="-1.60" angle="90.00" type="human" speed="13.51" pos="195.71" lane="e0_0" slope="0.00"/>
        <vehicle id="background.3" x="5.10" y="-1.60" angle="90.00" type="human" speed="13.89" pos="5.10" lane="e0_0" slope="0.00"/>
    </timestep>
    <timestep time="64.50">
        <vehicle id="background.0" x="299.00" y="-1.60" angle="90.00" type="human" speed="0.00" pos="299.00" lane="e0_0" slope="0.00"/>
        <vehicle id="background.1" x="280.06" y="-1.60" angle="90.00" type="human" speed="8.63" pos="280.06" lane="e0_0" slope="0.00"/>
        <vehicle id="background.2" x="202.44" y="-1.60" angle="90.00" type="human" speed="13.44" pos="202.44" lane="e0_0" slope="0.00"/>
        <vehicle id="background.3" x="11.87" y="-1.60" angle="90.00" type="human" speed="13.53" pos="11.87" lane="e0_0" slope="0.00"/>
    </timestep>
    <timestep time="65.00">
        <vehicle id="background.0" x="299.00" y="-1.60" angle="90.00" type="human" speed="0.00" pos="299.00" lane="e0_0" slope="0.00"/>
        <vehicle id="background.1" x="283.47" y="-1.60" angle="90.00" type="human" speed="6.81" pos="283.47" lane="e0_0" slope="0.00"/>
        <vehicle id="background.2" x="209.18" y="-1.60" angle="90.00" type="human" speed="13.48" pos="209.18" lane="e0_0" slope="0.00"/>
        <vehicle id="background.3" x="18.68" y="-1.60" angle="90.00" type="human" speed="13.63" pos="18.68" lane="e0_0" slope="0.00"/>
    </timestep>
    <timestep time="65.50">
        <vehicle id="background.0" x="299.00" y="-1.60" angle="90.00" type="human" speed="0.00" pos="299.00" lane="e0_0" slope="0.00"/>
        <vehicle id="background.1" x="286.30" y="-1.60" angle="90.00" type="human" speed="5.66" pos="286.30" lane="e0_0" slope="0.00"/>
        <vehicle id="background.2" x="216.11" y="-1.60" angle="90.00" type="human" speed="13.88" pos="216.11" lane="e0_0" slope="0.00"/>
        <vehicle id="background.3" x="25.55" y="-1.60" angle="90.00" type="human" speed="13.74" pos="25.55" lane="e0_0" slope="0.00"/>
    </timestep>
    <timestep time="66.00">
        <vehicle id="background.0" x="299.00" y="-1.60" angle="90.00" type="human" speed="0.00" pos="299.00" lane="e0_0" slope="0.00"/>
        <vehicle id="background.1" x="288.32" y="-1.60" angle="90.00" type="human" speed="4.05" pos="288.32" lane="e0_0" slope="0.00"/>
        <vehicle id="background.2" x="222.94" y="-1.60" angle="90.00" type="human" speed="13.64" pos="222.94" lane="e0_0" slope="0.00"/>
        <vehicle id="background.3" x="32.36" y="-1.60" angle="90.00" type="human" speed="13.61" pos="32.36" lane="e0_0" slope="0.00"/>
    </timestep>
    <timestep time="66.50">
        <vehicle id="background.0" x="299.00" y="-1.60" angle="90.00" type="human" speed="0.00" pos="299.00" lane="e0_0" slope="0.00"/>
        <vehicle id="background.1" x="289.51" y="-1.60" angle="90.00" type="human" speed="2.37" pos="289.51" lane="e0_0" slope="0.00"/>
        <vehicle id="background.2" x="229.74" y="-1.60" angle="90.00" type="human" speed="13.61" pos="229.74" lane="e0_0" slope="0.00"/>
        <vehicle id="background.3" x="39.10" y="-1.60" angle="90.00" type="human" speed="13.49" pos="39.10" lane="e0_0" slope="0.00"/>
    </timestep>
    <timestep time="67.00">
        <vehicle id="background.0" x="299.00" y="-1.60" angle="90.00" type="human" speed="0.00" pos="299.00" lane="e0_0" slope="0.00"/>
        <vehicle id="background.1" x="290.41" y="-1.60" angle="90.00" type="human" speed="1.81" pos="290.41" lane="e0_0" slope="0.00"/>
        <vehicle id="background.2" x="236.56" y="-1.60" angle="90.00" type="human" speed="13.64" pos="236.56" lane="e0_0" slope="0.00"/>
        <vehicle id="background.3" x="46.02" y="-1.60" angle="90.00" type="human" speed="13.84" pos="46.02" lane="e0_0" slope="0.00"/>
    </timestep>