<?xml version="1.0" encoding="UTF-8"?>

<!-- generated on 2026-05-14 17:06:36 by Eclipse SUMO sumo Version 1.24.0
<sumoConfiguration xmlns:xsi="http://www.w3.org/2001/XMLSchema-instance" xsi:noNamespaceSchemaLocation="http://sumo.dlr.de/xsd/sumoConfiguration.xsd">

    <input>
        <net-file value="scenarios/simple_arterial/simple_arterial.net.xml"/>
        <route-files value="scenarios/simple_arterial/simple_arterial_glosa.rou.xml"/>
        <additional-files value="scenarios/simple_arterial/simple_arterial.tls.xml"/>
    </input>

    <output>
        <fcd-output value="runs/fcd_expert_glosa/episode_00065_seed_107.fcd.xml"/>
    </output>

    <time>
        <begin value="0"/>
        <end value="900"/>
        <step-length value="0.5"/>
    </time>

    <report>
        <no-warnings value="true"/>
    </report>

    <traci_server>
        <remote-port value="37703"/>
    </traci_server>

    <random_number>
        <seed value="107"/>
    </random_number>

</sumoConfiguration>
-->

<fcd-export xmlns:xsi="http://www.w3.org/2001/XMLSchema-instance" xsi:noNamespaceSchemaLocation="http://sumo.dlr.de/xsd/fcd_file.xsd">
    <timestep time="0.00"/>
    <timestep time="0.50"/>
    <timestep time="1.00"/>
    <timestep time="1.50"/>
    <timestep time="2.00"/>
    <timestep time="2.50"/>
    <timestep time="3.00"/>
    <timestep time="3.50"/>
    <timestep time="4.00"/>
    <timestep time="4.50"/>
    <timestep time="5.00"/>
    <timestep time="5.50">
        <vehicle id="background.0" x="5.10" y="-1.60" angle="90.00" type="human" speed="13.89" pos="5.10" lane="e0_0" slope="0.00"/>
    </timestep>
    <timestep time="6.00">
        <vehicle id="background.0" x="11.99" y="-1.60" angle="90.00" type="human" speed="13.77" pos="11.99" lane="e0_0" slope="0.00"/>
    </timestep>
    <timestep time="6.50">
        <vehicle id="background.0" x="18.70" y="-1.60" angle="90.00" type="human" speed="13.44" pos="18.70" lane="e0_0" slope="0.00"/>
    </timestep>
    <timestep time="7.00">
        <vehicle id="background.0" x="25.64" y="-1.60" angle="90.00" type="human" speed="13.87" pos="25.64" lane="e0_0" slope="0.00"/>
    </timestep>
    <timestep time="7.50">
        <vehicle id="background.0" x="32.46" y="-1.60" angle="90.00" type="human" speed="13.63" pos="32.46" lane="e0_0" slope="0.00"/>
    </timestep>
    <timestep time="8.00">
        <vehicle id="background.0" x="39.26" y="-1.60" angle="90.00" type="human" speed="13.60" pos="39.26" lane="e0_0" slope="0.00"/>
    </timestep>
    <timestep time="8.50">
        <vehicle id="background.0" x="46.05" y="-1.60" angle="90.00" type="human" speed="13.58" pos="46.05" lane="e0_0" slope="0.00"/>
    </timestep>
    <timestep time="9.00">
        <vehicle id="background.0" x="52.96" y="-1.60" angle="90.00" type="human" speed="13.83" pos="52.96" lane="e0_0" slope="0.00"/>
    </timestep>
    <timestep time="9.50">
        <vehicle id="background.0" x="59.86" y="-1.60" angle="90.00" type="human" speed="13.79" pos="59.86" lane="e0_0" slope="0.00"/>
    </timestep>
    <timestep time="10.00">
        <vehicle id="background.0" x="66.63" y="-1.60" angle="90.00" type="human" speed="13.55" pos="66.63" lane="e0_0" slope="0.00"/>
    </timestep>
    <timestep time="10.50">
        <vehicle id="background.0" x="73.50" y="-1.60" angle="90.00" type="human" speed="13.73" pos="73.50" lane="e0_0" slope="0.00"/>
    </timestep>
    <timestep time="11.00">
        <vehicle id="background.0" x="80.27" y="-1.60" angle="90.00" type="human" speed="13.55" pos="80.27" lane="e0_0" slope="0.00"/>
    </timestep>
    <timestep time="11.50">
        <vehicle id="background.0" x="87.15" y="-1.60" angle="90.00" type="human" speed="13.76" pos="87.15" lane="e0_0" slope="0.00"/>
    </timestep>
    <timestep time="12.00">
        <vehicle id="background.0" x="93.88" y="-1.60" angle="90.00" type="human" speed="13.45" pos="93.88" lane="e0_0" slope="0.00"/>
    </timestep>
    <timestep time="12.50">
        <vehicle id="background.0" x="100.81" y="-1.60" angle="90.00" type="human" speed="13.87" pos="100.81" lane="e0_0" slope="0.00"/>
    </timestep>
    <timestep time="13.00">
        <vehicle id="background.0" x="107.73" y="-1.60" angle="90.00" type="human" speed="13.83" pos="107.73" lane="e0_0" slope="0.00"/>
    </timestep>
    <timestep time="13.50">
        <vehicle id="background.0" x="114.47" y="-1.60" angle="90.00" type="human" speed="13.48" pos="114.47" lane="e0_0" slope="0.00"/>
    </timestep>
    <timestep time="14.00">
        <vehicle id="background.0" x="121.27" y="-1.60" angle="90.00" type="human" speed="13.60" pos="121.27" lane="e0_0" slope="0.00"/>
    </timestep>
    <timestep time="14.50">
        <vehicle id="background.0" x="127.99" y="-1.60" angle="90.00" type="human" speed="13.45" pos="127.99" lane="e0_0" slope="0.00"/>
    </timestep>
    <timestep time="15.00">
        <vehicle id="background.0" x="134.92" y="-1.60" angle="90.00" type="human" speed="13.86" pos="134.92" lane="e0_0" slope="0.00"/>
    </timestep>
    <timestep time="15.50">
        <vehicle id="background.0" x="141.80" y="-1.60" angle="90.00" type="human" speed="13.76" pos="141.80" lane="e0_0" slope="0.00"/>
    </timestep>
    <timestep time="16.00">
        <vehicle id="background.0" x="148.67" y="-1.60" angle="90.00" type="human" speed="13.73" pos="148.67" lane="e0_0" slope="0.00"/>
    </timestep>
    <timestep time="16.50">
        <vehicle id="background.0" x="155.51" y="-1.60" angle="90.00" type="human" speed="13.68" pos="155.51" lane="e0_0" slope="0.00"/>
    </timestep>
    <timestep time="17.00">
        <vehicle id="background.0" x="162.34" y="-1.60" angle="90.00" type="human" speed="13.66" pos="162.34" lane="e0_0" slope="0.00"/>
    </timestep>
    <timestep time="17.50">
        <vehicle id="background.0" x="169.22" y="-1.60" angle="90.00" type="human" speed="13.77" pos="169.22" lane="e0_0" slope="0.00"/>
    </timestep>
    <timestep time="18.00">
        <vehicle id="background.0" x="175.94" y="-1.60" angle="90.00" type="human" speed="13.44" pos="175.94" lane="e0_0" slope="0.00"/>
    </timestep>
    <timestep time="18.50">
        <vehicle id="background.0" x="182.73" y="-1.60" angle="90.00" type="human" speed="13.58" pos="182.73" lane="e0_0" slope="0.00"/>
    </timestep>
    <timestep time="19.00">
        <vehicle id="background.0" x="189.54" y="-1.60" angle="90.00" type="human" speed="13.62" pos="189.54" lane="e0_0" slope="0.00"/>
    </timestep>
    <timestep time="19.50">
        <vehicle id="background.0" x="196.32" y="-1.60" angle="90.00" type="human" speed="13.55" pos="196.32" lane="e0_0" slope="0.00"/>
    </timestep>
    <timestep time="20.00">
        <vehicle id="background.0" x="203.25" y="-1.60" angle="90.00" type="human" speed="13.87" pos="203.25" lane="e0_0" slope="0.00"/>
    </timestep>
    <timestep time="20.50">
        <vehicle id="background.0" x="210.09" y="-1.60" angle="90.00" type="human" speed="13.68" pos="210.09" lane="e0_0" slope="0.00"/>
    </timestep>
    <timestep time="21.00">
        <vehicle id="background.0" x="216.86" y="-1.60" angle="90.00" type="human" speed="13.54" pos="216.86" lane="e0_0" slope="0.00"/>
    </timestep>
    <timestep time="21.50">
        <vehicle id="background.0" x="223.81" y="-1.60" angle="90.00" type="human" speed="13.88" pos="223.81" lane="e0_0" slope="0.00"/>
    </timestep>
    <timestep time="22.00">
        <vehicle id="background.0" x="230.50" y="-1.60" angle="90.00" type="human" speed="13.39" pos="230.50" lane="e0_0" slope="0.00"/>
    </timestep>
    <timestep time="22.50">
        <vehicle id="background.0" x="237.44" y="-1.60" angle="90.00" type="human" speed="13.87" pos="237.44" lane="e0_0" slope="0.00"/>
    </timestep>
    <timestep time="23.00">
        <vehicle id="background.0" x="244.33" y="-1.60" angle="90.00" type="human" speed="13.79" pos="244.33" lane="e0_0" slope="0.00"/>
    </timestep>
    <timestep time="23.50">
        <vehicle id="background.0" x="251.11" y="-1.60" angle="90.00" type="human" speed="13.57" pos="251.11" lane="e0_0" slope="0.00"/>
    </timestep>
    <timestep time="24.00">
        <vehicle id="background.0" x="257.90" y="-1.60" angle="90.00" type="human" speed="13.57" pos="257.90" lane="e0_0" slope="0.00"/>
    </timestep>
    <timestep time="24.50">
        <vehicle id="background.0" x="264.59" y="-1.60" angle="90.00" type="human" speed="13.39" pos="264.59" lane="e0_0" slope="0.00"/>
    </timestep>
    <timestep time="25.00">
        <vehicle id="background.0" x="271.35" y="-1.60" angle="90.00" type="human" speed="13.52" pos="271.35" lane="e0_0" slope="0.00"/>
    </timestep>
    <timestep time="25.50">
        <vehicle id="background.0" x="278.15" y="-1.60" angle="90.00" type="human" speed="13.60" pos="278.15" lane="e0_0" slope="0.00"/>
    </timestep>
    <timestep time="26.00">
        <vehicle id="background.0" x="285.03" y="-1.60" angle="90.00" type="human" speed="13.75" pos="285.03" lane="e0_0" slope="0.00"/>
    </timestep>
    <timestep time="26.50">
        <vehicle id="background.0" x="291.81" y="-1.60" angle="90.00" type="human" speed="13.57" pos="291.81" lane="e0_0" slope="0.00"/>
    </timestep>
    <timestep time="27.00">
        <vehicle id="background.0" x="298.73" y="-1.60" angle="90.00" type="human" speed="13.84" pos="298.73" lane="e0_0" slope="0.00"/>
    </timestep>
    <timestep time="27.50">
        <vehicle id="background.0" x="305.54" y="-1.60" angle="90.00" type="human" speed="13.82" pos="5.54" lane="e1_0" slope="0.00"/>
    </timestep>
    <timestep time="28.00">
        <vehicle id="background.0" x="312.33" y="-1.60" angle="90.00" type="human" speed="13.58" pos="12.33" lane="e1_0" slope="0.00"/>
    </timestep>
    <timestep time="28.50">
        <vehicle id="background.0" x="319.12" y="-1.60" angle="90.00" type="human" speed="13.57" pos="19.12" lane="e1_0" slope="0.00"/>
    </timestep>
    <timestep time="29.00">
        <vehicle id="background.0" x="325.94" y="-1.60" angle="90.00" type="human" speed="13.64" pos="25.94" lane="e1_0" slope="0.00"/>
    </timestep>
    <timestep time="29.50">
        <vehicle id="background.0" x="332.76" y="-1.60" angle="90.00" type="human" speed="13.64" pos="32.76" lane="e1_0" slope="0.00"/>
    </timestep>
    <timestep time="30.00">
        <vehicle id="background.0" x="339.53" y="-1.60" angle="90.00" type="human" speed="13.54" pos="39.53" lane="e1_0" slope="0.00"/>
    </timestep>
    <timestep time="30.50">
        <vehicle id="background.0" x="346.35" y="-1.60" angle="90.00" type="human" speed="13.64" pos="46.35" lane="e1_0" slope="0.00"/>
    </timestep>
    <timestep time="31.00"/>
    <timestep time="31.50"/>
    <timestep time="32.00"/>
    <timestep time="32.50"/>
    <timestep time="33.00"/>
    <timestep time="33.50"/>
    <timestep time="34.00"/>
    <timestep time="34.50"/>
    <timestep time="35.00"/>
    <timestep time="35.50"/>
    <timestep time="36.00"/>
    <timestep time="36.50"/>
    <timestep time="37.00"/>
    <timestep time="37.50"/>
    <timestep time="38.00"/>
    <timestep time="38.50"/>
    <timestep time="39.00"/>
    <timestep time="39.50"/>
    <timestep time="40.00"/>
    <timestep time="40.50"/>
    <timestep time="41.00"/>
    <timestep time="41.50"/>
    <timestep time="42.00"/>
    <timestep time="42.50"/>
    <timestep time="43.00"/>
    <timestep time="43.50"/>
    <timestep time="44.00"/>
    <timestep time="44.50"/>
    <timestep time="45.00"/>
    <timestep time="45.50"/>
    <timestep time="46.00"/>
    <timestep time="46.50"/>
    <timestep time="47.00"/>
    <timestep time="47.50"/>
    <timestep time="48.00"/>
    <timestep time="48.50"/>
    <timestep time="49.00"/>
    <timestep time="49.50"/>
    <timestep time="50.00"/>
    <timestep time="50.50"/>
    <timestep time="51.00"/>
    <timestep time="51.50"/>
    <timestep time="52.00"/>
    <timestep time="52.50"/>
    <timestep time="53.00"/>
    <timestep time="53.50"/>
    <timestep time="54.00"/>
    <timestep time="54.50"/>
    <timestep time="55.00"/>
    <timestep time="55.50"/>
    <timestep time="56.00"/>
    <timestep time="56.50"/>
    <timestep time="57.00"/>
    <timestep time="57.50"/>
    <timestep time="58.00"/>
    <timestep time="58.50">
        <vehicle id="ego" x="5.10" y="-1.60" angle="90.00" type="ego_glosa_type" speed="0.00" pos="5.10" lane="e0_0" slope="0.00"/>
    </timestep>
    <timestep time="59.00">
        <vehicle id="ego" x="5.60" y="-1.60" angle="90.00" type="ego_glosa_type" speed="1.00" pos="5.60" lane="e0_0" slope="0.00"/>
    </timestep>
    <timestep time="59.50">
        <vehicle id="ego" x="6.60" y="-1.60" angle="90.00" type="ego_glosa_type" speed="2.00" pos="6.60" lane="e0_0" slope="0.00"/>
    </timestep>
    <timestep time="60.00">
        <vehicle id="ego" x="8.10" y="-1.60" angle="90.00" type="ego_glosa_type" speed="3.00" pos="8.10" lane="e0_0" slope="0.00"/>
    </timestep>
    <timestep time="60.50">
        <vehicle id="ego" x="10.10" y="-1.60" angle="90.00" type="ego_glosa_type" speed="4.00" pos="10.10" lane="e0_0" slope="0.00"/>
    </timestep>
    <timestep time="61.00">
        <vehicle id="background.1" x="5.10" y="-1.60" angle="90.00" type="human" speed="1.62" pos="5.10" lane="e0_0" slope="0.00"/>
        <vehicle id="ego" x="12.60" y="-1.60" angle="90.00" type="ego_glosa_type" speed="5.00" pos="12.60" lane="e0_0" slope="0.00"/>
    </timestep>
    <timestep time="61.50">
        <vehicle id="background.1" x="5.87" y="-1.60" angle="90.00" type="human" speed="1.54" pos="5.87" lane="e0_0" slope="0.00"/>
        <vehicle id="ego" x="15.60" y="-1.60" angle="90.00" type="ego_glosa_type" speed="6.00" pos="15.60" lane="e0_0" slope="0.00"/>
    </timestep>
    <timestep time="62.00">
        <vehicle id="background.1" x="6.99" y="-1.60" angle="90.00" type="human" speed="2.23" pos="6.99" lane="e0_0" slope="0.00"/>
        <vehicle id="ego" x="19.10" y="-1.60" angle="90.00" type="ego_glosa_type" speed="7.00" pos="19.10" lane="e0_0" slope="0.00"/>
    </timestep>
    <timestep time="62.50">
        <vehicle id="background.1" x="8.44" y="-1.60" angle="90.00" type="human" speed="2.90" pos="8.44" lane="e0_0" slope="0.00"/>
        <vehicle id="ego" x="23.10" y="-1.60" angle="90.00" type="ego_glosa_type" speed="8.00" pos="23.10" lane="e0_0" slope="0.00"/>
    </timestep>
    <timestep time="63.00">
        <vehicle id="background.1" x="10.21" y="-1.60" angle="90.00" type="human" speed="3.54" pos="10.21" lane="e0_0" slope="0.00"/>
        <vehicle id="ego" x="27.60" y="-1.60" angle="90.00" type="ego_glosa_type" speed="9.00" pos="27.60" lane="e0_0" slope="0.00"/>
    </timestep>
    <timestep time="63.50">
        <vehicle id="background.1" x="12.35" y="-1.60" angle="90.00" type="human" speed="4.28" pos="12.35" lane="e0_0" slope="0.00"/>
        <vehicle id="ego" x="32.60" y="-1.60" angle="90.00" type="ego_glosa_type" speed="10.00" pos="32.60" lane="e0_0" slope="0.00"/>
    </timestep>
    <timestep time="64.00">
        <vehicle id="background.1" x="14.98" y="-1.60" angle="90.00" type="human" speed="5.28" pos="14.98" lane="e0_0" slope="0.00"/>
        <vehicle id="ego" x="38.10" y="-1.60" angle="90.00" type="ego_glosa_type" speed="11.00" pos="38.10" lane="e0_0" slope="0.00"/>
    </timestep>
    <timestep time="64.50">
        <vehicle id="background.1" x="18.11" y="-1.60" angle="90.00" type="human" speed="6.25" pos="18.11" lane="e0_0" slope="0.00"/>
        <vehicle id="ego" x="44.10" y="-1.60" angle="90.00" type="ego_glosa_type" speed="12.00" pos="44.10" lane="e0_0" slope="0.00"/>
    </timestep>
    <timestep time="65.00">
        <vehicle id="background.1" x="21.67" y="-1.60" angle="90.00" type="human" speed="7.12" pos="21.67" lane="e0_0" slope="0.00"/>
        <vehicle id="ego" x="50.60" y="-1.60" angle="90.00" type="ego_glosa_type" speed="13.00" pos="50.60" lane="e0_0" slope="0.00"/>
    </timestep>
    <timestep time="65.50">
        <vehicle id="background.1" x="25.50" y="-1.60" angle="90.00" type="human" speed="7.65" pos="25.50" lane="e0_0" slope="0.00"/>
        <vehicle id="ego" x="57.55" y="-1.60" angle="90.00" type="ego_glosa_type" speed="13.89" pos="57.55" lane="e0_0" slope="0.00"/>
    </timestep>
    <timestep time="66.00">
        <vehicle id="background.1" x="29.75" y="-1.60" angle="90.00" type="human" speed="8.50" pos="29.75" lane="e0_0" slope="0.00"/>
        <vehicle id="ego" x="64.49" y="-1.60" angle="90.00" type="ego_glosa_type" speed="13.89" pos="64.49" lane="e0_0" slope="0.00"/>
    </timestep>
    <timestep time="66.50">
        <vehicle id="background.1" x="34.26" y="-1.60" angle="90.00" type="human" speed="9.03" pos="34.26" lane="e0_0" slope="0.00"/>
        <vehicle id="ego" x="71.44" y="-1.60" angle="90.00" type="ego_glosa_type" speed="13.89" pos="71.44" lane="e0_0" slope="0.00"/>
    </timestep>
    <timestep time="67.00">
        <vehicle id="background.1" x="39.06" y="-1.60" angle="90.00" type="human" speed="9.59" pos="39.06" lane="e0_0" slope="0.00"/>
        <vehicle id="ego" x="78.38" y="-1.60" angle="90.00" type="ego_glosa_type" speed="13.89" pos="78.38" lane="e0_0" slope="0.00"/>
    </timestep>
    <timestep time="67.50">
        <vehicle id="background.1" x="44.24" y="-1.60" angle="90.00" type="human" speed="10.36" pos="44.24" lane="e0_0" slope="0.00"/>
        <vehicle id="ego" x="85.32" y="-1.60" angle="90.00" type="ego_glosa_type" speed="13.89" pos="85.32" lane="e0_0" slope="0.00"/>
    </timestep>
    <timestep time="68.00">
        <vehicle id="background.1" x="49.81" y="-1.60" angle="90.00" type="human" speed="11.14" pos="49.81" lane="e0_0" slope="0.00"/>
        <vehicle id="ego" x="92.27" y="-1.60" angle="90.00" type="ego_glosa_type" speed="13.89" pos="92.27" lane="e0_0" slope="0.00"/>
    </timestep>
    <timestep time="68.50">
        <vehicle id="background.1" x="55.64" y="-1.60" angle="90.00" type="human" speed="11.67" pos="55.64" lane="e0_0" slope="0.00"/>
        <vehicle id="ego" x="99.21" y="-1.60" angle="90.00" type="ego_glosa_type" speed="13.89" pos="99.21" lane="e0_0" slope="0.00"/>
    </timestep>
    <timestep time="69.00">
        <vehicle id="background.1" x="61.82" y="-1.60" angle="90.00" type="human" speed="12.35" pos="61.82" lane="e0_0" slope="0.00"/>
        <vehicle id="ego" x="106.16" y="-1.60" angle="90.00" type="ego_glosa_type" speed="13.89" pos="106.16" lane="e0_0" slope="0.00"/>
    </timestep>
    <timestep time="69.50">
        <vehicle id="background.1" x="68.35" y="-1.60" angle="90.00" type="human" speed="13.05" pos="68.35" lane="e0_0" slope="0.00"/>
        <vehicle id="ego" x="113.10" y="-1.60" angle="90.00" type="ego_glosa_type" speed="13.89" pos="113.10" lane="e0_0" slope="0.00"/>
    </timestep>
    <timestep time="70.00">
        <vehicle id="background.1" x="75.16" y="-1.60" angle="90.00" type="human" speed="13.63" pos="75.16" lane="e0_0" slope="0.00"/>
        <vehicle id="ego" x="120.05" y="-1.60" angle="90.00" type="ego_glosa_type" speed="13.89" pos="120.05" lane="e0_0" slope="0.00"/>
    </timestep>
    <timestep time="70.50">
        <vehicle id="background.1" x="82.06" y="-1.60" angle="90.00" type="human" speed="13.79" pos="82.06" lane="e0_0" slope="0.00"/>
        <vehicle id="ego" x="126.99" y="-1.60" angle="90.00" type="ego_glosa_type" speed="13.89" pos="126.99" lane="e0_0" slope="0.00"/>
    </timestep>
    <timestep time="71.00">
        <vehicle id="background.1" x="88.88" y="-1.60" angle="90.00" type="human" speed="13.64" pos="88.88" lane="e0_0" slope="0.00"/>
        <vehicle id="ego" x="133.94" y="-1.60" angle="90.00" type="ego_glosa_type" speed="13.89" pos="133.94" lane="e0_0" slope="0.00"/>
    </timestep>
    <timestep time="71.50">
        <vehicle id="background.1" x="95.80" y="-1.60" angle="90.00" type="human" speed="13.84" pos="95.80" lane="e0_0" slope="0.00"/>
        <vehicle id="ego" x="140.88" y="-1.60" angle="90.00" type="ego_glosa_type" speed="13.89" pos="140.88" lane="e0_0" slope="0.00"/>
    </timestep>
    <timestep time="72.00">
        <vehicle id="background.1" x="102.54" y="-1.60" angle="90.00" type="human" speed="13.49" pos="102.54" lane="e0_0" slope="0.00"/>
        <vehicle id="ego" x="147.83" y="-1.60" angle="90.00" type="ego_glosa_type" speed="13.89" pos="147.83" lane="e0_0" slope="0.00"/>
    </timestep>
    <timestep time="72.50">
        <vehicle id="background.1" x="109.29" y="-1.60" angle="90.00" type="human" speed="13.50" pos="109.29" lane="e0_0" slope="0.00"/>
        <vehicle id="ego" x="154.77" y="-1.60" angle="90.00" type="ego_glosa_type" speed="13.89" pos="154.77" lane="e0_0" slope="0.00"/>
    </timestep>
    <timestep time="73.00">
        <vehicle id="background.1" x="116.05" y="-1.60" angle="90.00" type="human" speed="13.52" pos="116.05" lane="e0_0" slope="0.00"/>
        <vehicle id="ego" x="161.72" y="-1.60" angle="90.00" type="ego_glosa_type" speed="13.89" pos="161.72" lane="e0_0" slope="0.00"/>
    </timestep>
    <timestep time="73.50">
        <vehicle id="background.1" x="122.99" y="-1.60" angle="90.00" type="human" speed="13.88" pos="122.99" lane="e0_0" slope="0.00"/>
        <vehicle id="background.2" x="5.10" y="-1.60" angle="90.00" type="human" speed="13.59" pos="5.10" lane="e0_0" slope="0.00"/>
        <vehicle id="ego" x="168.66" y="-1.60" angle="90.00" type="ego_glosa_type" speed="13.89" pos="168.66" lane="e0_0" slope="0.00"/>
    </timestep>
    <timestep time="74.00">
        <vehicle id="background.1" x="129.88" y="-1.60" angle="90.00" type="human" speed="13.77" pos="129.88" lane="e0_0" slope="0.00"/>
        <vehicle id="background.2" x="11.80" y="-1.60" angle="90.00" type="human" speed="13.40" pos="11.80" lane="e0_0" slope="0.00"/>
        <vehicle id="ego" x="175.61" y="-1.60" angle="90.00" type="ego_glosa_type" speed="13.89" pos="175.61" lane="e0_0" slope="0.00"/>
    </timestep>
    <timestep time="74.50">
        <vehicle id="background.1" x="136.71" y="-1.60" angle="90.00" type="human" speed="13.67" pos="136.71" lane="e0_0" slope="0.00"/>
        <vehicle id="background.2" x="18.39" y="-1.60" angle="90.00" type="human" speed="13.18" pos="18.39" lane="e0_0" slope="0.00"/>
        <vehicle id="background.3" x="5.10" y="-1.60" angle="90.00" type="human" speed="11.04" pos="5.10" lane="e0_0" slope="0.00"/>
        <vehicle id="ego" x="182.55" y="-1.60" angle="90.00" type="ego_glosa_type" speed="13.89" pos="182.55" lane="e0_0" slope="0.00"/>
    </timestep>
    <timestep time="75.00">
        <vehicle id="background.1" x="143.55" y="-1.60" angle="90.00" type="human" speed="13.67" pos="143.55" lane="e0_0" slope="0.00"/>
        <vehicle id="background.2" x="25.05" y="-1.60" angle="90.00" type="human" speed="13.31" pos="25.05" lane="e0_0" slope="0.00"/>
        <vehicle id="background.3" x="10.53" y="-1.60" angle="90.00" type="human" speed="10.86" pos="10.53" lane="e0_0" slope="0.00"/>
        <vehicle id="ego" x="189.50" y="-1.60" angle="90.00" type="ego_glosa_type" speed="13.89" pos="189.50" lane="e0_0" slope="0.00"/>
    </timestep>
    <timestep time="75.50">
        <vehicle id="background.1" x="150.32" y="-1.60" angle="90.00" type="human" speed="13.53" pos="150.32" lane="e0_0" slope="0.00"/>
        <vehicle id="background.2" x="31.81" y="-1.60" angle="90.00" type="human" speed="13.53" pos="31.81" lane="e0_0" slope="0.00"/>
        <vehicle id="background.3" x="16.12" y="-1.60" angle="90.00" type="human" speed="11.19" pos="16.12" lane="e0_0" slope="0.00"/>
        <vehicle id="ego" x="196.44" y="-1.60" angle="90.00" type="ego_glosa_type" speed="13.89" pos="196.44" lane="e0_0" slope="0.00"/>
    </timestep>
    <timestep time="76.00">
        <vehicle id="background.1" x="157.10" y="-1.60" angle="90.00" type="human" speed="13.56" pos="157.10" lane="e0_0" slope="0.00"/>
        <vehicle id="background.2" x="38.38" y="-1.60" angle="90.00" type="human" speed="13.13" pos="38.38" lane="e0_0" slope="0.00"/>
        <vehicle id="background.3" x="21.84" y="-1.60" angle="90.00" type="human" speed="11.43" pos="21.84" lane="e0_0" slope="0.00"/>
        <vehicle id="background.4" x="5.10" y="-1.60" angle="90.00" type="human" speed="10.73" pos="5.10" lane="e0_0" slope="0.00"/>
        <vehicle id="ego" x="203.39" y="-1.60" angle="90.00" type="ego_glosa_type" speed="13.89" pos="203.39" lane="e0_0" slope="0.00"/>
    </timestep>
    <timestep time="76.50">
        <vehicle id="background.1" x="163.86" y="-1.60" angle="90.00" type="human" speed="13.53" pos="163.86" lane="e0_0" slope="0.00"/>
        <vehicle id="background.2" x="45.15" y="-1.60" angle="90.00" type="human" speed="13.55" pos="45.15" lane="e0_0" slope="0.00"/>
        <vehicle id="background.3" x="27.46" y="-1.60" angle="90.00" type="human" speed="11.24" pos="27.46" lane="e0_0" slope="0.00"/>
        <vehicle id="background.4" x="10.36" y="-1.60" angle="90.00" type="human" speed="10.52" pos="10.36" lane="e0_0" slope="0.00"/>
        <vehicle id="ego" x="210.33" y="-1.60" angle="90.00" type="ego_glosa_type" speed="13.89" pos="210.33" lane="e0_0" slope="0.00"/>
    </timestep>
    <timestep time="77.00">
        <vehicle id="background.1" x="170.75" y="-1.60" angle="90.00" type="human" speed="13.78" pos="170.75" lane="e0_0" slope="0.00"/>
        <vehicle id="background.2" x="51.78" y="-1.60" angle="90.00" type="human" speed="13.25" pos="51.78" lane="e0_0" slope="0.00"/>
        <vehicle id="background.3" x="33.31" y="-1.60" angle="90.00" type="human" speed="11.70" pos="33.31" lane="e0_0" slope="0.00"/>
        <vehicle id="background.4" x="15.54" y="-1.60" angle="90.00" type="human" speed="10.36" pos="15.54" lane="e0_0" slope="0.00"/>
        <vehicle id="ego" x="217.28" y="-1.60" angle="90.00" type="ego_glosa_type" speed="13.89" pos="217.28" lane="e0_0" slope="0.00"/>
    </timestep>
    <timestep time="77.50">
        <vehicle id="background.1" x="177.66" y="-1.60" angle="90.00" type="human" speed="13.82" pos="177.66" lane="e0_0" slope="0.00"/>
        <vehicle id="background.2" x="58.40" y="-1.60" angle="90.00" type="human" speed="13.25" pos="58.40" lane="e0_0" slope="0.00"/>
        <vehicle id="background.3" x="39.12" y="-1.60" angle="90.00" type="human" speed="11.62" pos="39.12" lane="e0_0" slope="0.00"/>
        <vehicle id="background.4" x="20.98" y="-1.60" angle="90.00" type="human" speed="10.88" pos="20.98" lane="e0_0" slope="0.00"/>
        <vehicle id="ego" x="224.22" y="-1.60" angle="90.00" type="ego_glosa_type" speed="13.89" pos="224.22" lane="e0_0" slope="0.00"/>
    </timestep>
    <timestep time="78.00">
        <vehicle id="background.1" x="184.38" y="-1.60" angle="90.00" type="human" speed="13.46" pos="184.38" lane="e0_0" slope="0.00"/>
        <vehicle id="background.2" x="65.09" y="-1.60" angle="90.00" type="human" speed="13.37" pos="65.09" lane="e0_0" slope="0.00"/>
        <vehicle id="background.3" x="44.89" y="-1.60" angle="90.00" type="human" speed="11.55" pos="44.89" lane="e0_0" slope="0.00"/>
        <vehicle id="background.4" x="26.46" y="-1.60" angle="90.00" type="human" speed="10.95" pos="26.46" lane="e0_0" slope="0.00"/>
        <vehicle id="ego" x="231.17" y="-1.60" angle="90.00" type="ego_glosa_type" speed="13.89" pos="231.17" lane="e0_0" slope="0.00"/>
    </timestep>
    <timestep time="78.50">
        <vehicle id="background.1" x="191.24" y="-1.60" angle="90.00" type="human" speed="13.71" pos="191.24" lane="e0_0" slope="0.00"/>
        <vehicle id="background.2" x="71.82" y="-1.60" angle="90.00" type="human" speed="13.46" pos="71.82" lane="e0_0" slope="0.00"/>
        <vehicle id="background.3" x="50.66" y="-1.60" angle="90.00" type="human" speed="11.53" pos="50.66" lane="e0_0" slope="0.00"/>
        <vehicle id="background.4" x="32.11" y="-1.60" angle="90.00" type="human" speed="11.31" pos="32.11" lane="e0_0" slope="0.00"/>
        <vehicle id="ego" x="238.11" y="-1.60" angle="90.00" type="ego_glosa_type" speed="13.89" pos="238.11" lane="e0_0" slope="0.00"/>
    </timestep>
    <timestep time="79.00">
        <vehicle id="background.1" x="198.17" y="-1.60" angle="90.00" type="human" speed="13.86" pos="198.17" lane="e0_0" slope="0.00"/>
        <vehicle id="background.2" x="78.59" y="-1.60" angle="90.00" type="human" speed="13.55" pos="78.59" lane="e0_0" slope="0.00"/>
        <vehicle id="background.3" x="56.41" y="-1.60" angle="90.00" type="human" speed="11.49" pos="56.41" lane="e0_0" slope="0.00"/>
        <vehicle id="background.4" x="37.56" y="-1.60" angle="90.00" type="human" speed="10.90" pos="37.56" lane="e0_0" slope="0.00"/>
        <vehicle id="ego" x="245.06" y="-1.60" angle="90.00" type="ego_glosa_type" speed="13.89" pos="245.06" lane="e0_0" slope="0.00"/>
    </timestep>
    <timestep time="79.50">
        <vehicle id="background.1" x="205.02" y="-1.60" angle="90.00" type="human" speed="13.70" pos="205.02" lane="e0_0" slope="0.00"/>
        <vehicle id="background.2" x="85.22" y="-1.60" angle="90.00" type="human" speed="13.25" pos="85.22" lane="e0_0" slope="0.00"/>
        <vehicle id="background.3" x="62.24" y="-1.60" angle="90.00" type="human" speed="11.67" pos="62.24" lane="e0_0" slope="0.00"/>
        <vehicle id="background.4" x="43.09" y="-1.60" angle="90.00" type="human" speed="11.05" pos="43.09" lane="e0_0" slope="0.00"/>
        <vehicle id="ego" x="252.00" y="-1.60" angle="90.00" type="ego_glosa_type" speed="13.89" pos="252.00" lane="e0_0" slope="0.00"/>
    </timestep>
    <timestep time="80.00">
        <vehicle id="background.1" x="211.81" y="-1.60" angle="90.00" type="human" speed="13.59" pos="211.81" lane="e0_0" slope="0.00"/>
        <vehicle id="background.2" x="91.84" y="-1.60" angle="90.00" type="human" speed="13.25" pos="91.84" lane="e0_0" slope="0.00"/>
        <vehicle id="background.3" x="67.97" y="-1.60" angle="90.00" type="human" speed="11.45" pos="67.97" lane="e0_0" slope="0.00"/>
        <vehicle id="background.4" x="48.89" y="-1.60" angle="90.00" type="human" speed="11.61" pos="48.89" lane="e0_0" slope="0.00"/>