<?xml version="1.0" encoding="UTF-8"?>

<!-- generated on 2026-05-14 17:05:49 by Eclipse SUMO sumo Version 1.24.0
<sumoConfiguration xmlns:xsi="http://www.w3.org/2001/XMLSchema-instance" xsi:noNamespaceSchemaLocation="http://sumo.dlr.de/xsd/sumoConfiguration.xsd">

    <input>
        <net-file value="scenarios/simple_arterial/simple_arterial.net.xml"/>
        <route-files value="scenarios/simple_arterial/simple_arterial_glosa.rou.xml"/>
        <additional-files value="scenarios/simple_arterial/simple_arterial.tls.xml"/>
    </input>

    <output>
        <fcd-output value="runs/fcd_expert_glosa/episode_00025_seed_67.fcd.xml"/>
    </output>

    <time>
        <begin value="0"/>
        <end value="900"/>
        <step-length value="0.5"/>
    </time>

    <report>
        <no-warnings value="true"/>
    </report>

    <traci_server>
        <remote-port value="37703"/>
    </traci_server>

    <random_number>
        <seed value="67"/>
    </random_number>

</sumoConfiguration>
-->

<fcd-export xmlns:xsi="http://www.w3.org/2001/XMLSchema-instance" xsi:noNamespaceSchemaLocation="http://sumo.dlr.de/xsd/fcd_file.xsd">
    <timestep time="0.00"/>
    <timestep time="0.50"/>
    <timestep time="1.00"/>
    <timestep time="1.50"/>
    <timestep time="2.00"/>
    <timestep time="2.50"/>
    <timestep time="3.00"/>
    <timestep time="3.50"/>
    <timestep time="4.00"/>
    <timestep time="4.50"/>
    <timestep time="5.00"/>
    <timestep time="5.50"/>
    <timestep time="6.00"/>
    <timestep time="6.50"/>
    <timestep time="7.00"/>
    <timestep time="7.50"/>
    <timestep time="8.00"/>
    <timestep time="8.50"/>
    <timestep time="9.00"/>
    <timestep time="9.50"/>
    <timestep time="10.00"/>
    <timestep time="10.50"/>
    <timestep time="11.00"/>
    <timestep time="11.50"/>
    <timestep time="12.00"/>
    <timestep time="12.50"/>
    <timestep time="13.00"/>
    <timestep time="13.50"/>
    <timestep time="14.00"/>
    <timestep time="14.50"/>
    <timestep time="15.00"/>
    <timestep time="15.50"/>
    <timestep time="16.00"/>
    <timestep time="16.50"/>
    <timestep time="17.00">
        <vehicle id="background.0" x="5.10" y="-1.60" angle="90.00" type="human" speed="13.89" pos="5.10" lane="e0_0" slope="0.00"/>
    </timestep>
    <timestep time="17.50">
        <vehicle id="background.0" x="11.98" y="-1.60" angle="90.00" type="human" speed="13.76" pos="11.98" lane="e0_0" slope="0.00"/>
    </timestep>
    <timestep time="18.00">
        <vehicle id="background.0" x="18.82" y="-1.60" angle="90.00" type="human" speed="13.69" pos="18.82" lane="e0_0" slope="0.00"/>
    </timestep>
    <timestep time="18.50">
        <vehicle id="background.0" x="25.76" y="-1.60" angle="90.00" type="human" speed="13.87" pos="25.76" lane="e0_0" slope="0.00"/>
    </timestep>
    <timestep time="19.00">
        <vehicle id="background.0" x="32.51" y="-1.60" angle="90.00" type="human" speed="13.50" pos="32.51" lane="e0_0" slope="0.00"/>
    </timestep>
    <timestep time="19.50">
        <vehicle id="background.0" x="39.31" y="-1.60" angle="90.00" type="human" speed="13.60" pos="39.31" lane="e0_0" slope="0.00"/>
    </timestep>
    <timestep time="20.00">
        <vehicle id="background.0" x="46.22" y="-1.60" angle="90.00" type="human" speed="13.82" pos="46.22" lane="e0_0" slope="0.00"/>
    </timestep>
    <timestep time="20.50">
        <vehicle id="background.0" x="53.14" y="-1.60" angle="90.00" type="human" speed="13.83" pos="53.14" lane="e0_0" slope="0.00"/>
    </timestep>
    <timestep time="21.00">
        <vehicle id="background.0" x="59.95" y="-1.60" angle="90.00" type="human" speed="13.62" pos="59.95" lane="e0_0" slope="0.00"/>
    </timestep>
    <timestep time="21.50">
        <vehicle id="background.0" x="66.74" y="-1.60" angle="90.00" type="human" speed="13.58" pos="66.74" lane="e0_0" slope="0.00"/>
    </timestep>
    <timestep time="22.00">
        <vehicle id="background.0" x="73.67" y="-1.60" angle="90.00" type="human" speed="13.86" pos="73.67" lane="e0_0" slope="0.00"/>
    </timestep>
    <timestep time="22.50">
        <vehicle id="background.0" x="80.54" y="-1.60" angle="90.00" type="human" speed="13.74" pos="80.54" lane="e0_0" slope="0.00"/>
    </timestep>
    <timestep time="23.00">
        <vehicle id="background.0" x="87.39" y="-1.60" angle="90.00" type="human" speed="13.71" pos="87.39" lane="e0_0" slope="0.00"/>
    </timestep>
    <timestep time="23.50">
        <vehicle id="background.0" x="94.13" y="-1.60" angle="90.00" type="human" speed="13.49" pos="94.13" lane="e0_0" slope="0.00"/>
    </timestep>
    <timestep time="24.00">
        <vehicle id="background.0" x="101.00" y="-1.60" angle="90.00" type="human" speed="13.73" pos="101.00" lane="e0_0" slope="0.00"/>
    </timestep>
    <timestep time="24.50">
        <vehicle id="background.0" x="107.92" y="-1.60" angle="90.00" type="human" speed="13.84" pos="107.92" lane="e0_0" slope="0.00"/>
    </timestep>
    <timestep time="25.00">
        <vehicle id="background.0" x="114.79" y="-1.60" angle="90.00" type="human" speed="13.74" pos="114.79" lane="e0_0" slope="0.00"/>
    </timestep>
    <timestep time="25.50">
        <vehicle id="background.0" x="121.56" y="-1.60" angle="90.00" type="human" speed="13.54" pos="121.56" lane="e0_0" slope="0.00"/>
    </timestep>
    <timestep time="26.00">
        <vehicle id="background.0" x="128.37" y="-1.60" angle="90.00" type="human" speed="13.62" pos="128.37" lane="e0_0" slope="0.00"/>
    </timestep>
    <timestep time="26.50">
        <vehicle id="background.0" x="135.08" y="-1.60" angle="90.00" type="human" speed="13.42" pos="135.08" lane="e0_0" slope="0.00"/>
    </timestep>
    <timestep time="27.00">
        <vehicle id="background.0" x="141.86" y="-1.60" angle="90.00" type="human" speed="13.55" pos="141.86" lane="e0_0" slope="0.00"/>
    </timestep>
    <timestep time="27.50">
        <vehicle id="background.0" x="148.59" y="-1.60" angle="90.00" type="human" speed="13.47" pos="148.59" lane="e0_0" slope="0.00"/>
    </timestep>
    <timestep time="28.00">
        <vehicle id="background.0" x="155.30" y="-1.60" angle="90.00" type="human" speed="13.42" pos="155.30" lane="e0_0" slope="0.00"/>
    </timestep>
    <timestep time="28.50">
        <vehicle id="background.0" x="162.04" y="-1.60" angle="90.00" type="human" speed="13.49" pos="162.04" lane="e0_0" slope="0.00"/>
    </timestep>
    <timestep time="29.00">
        <vehicle id="background.0" x="168.89" y="-1.60" angle="90.00" type="human" speed="13.70" pos="168.89" lane="e0_0" slope="0.00"/>
    </timestep>
    <timestep time="29.50">
        <vehicle id="background.0" x="175.60" y="-1.60" angle="90.00" type="human" speed="13.40" pos="175.60" lane="e0_0" slope="0.00"/>
    </timestep>
    <timestep time="30.00">
        <vehicle id="background.0" x="182.47" y="-1.60" angle="90.00" type="human" speed="13.75" pos="182.47" lane="e0_0" slope="0.00"/>
    </timestep>
    <timestep time="30.50">
        <vehicle id="background.0" x="189.28" y="-1.60" angle="90.00" type="human" speed="13.62" pos="189.28" lane="e0_0" slope="0.00"/>
    </timestep>
    <timestep time="31.00">
        <vehicle id="background.0" x="196.04" y="-1.60" angle="90.00" type="human" speed="13.51" pos="196.04" lane="e0_0" slope="0.00"/>
    </timestep>
    <timestep time="31.50">
        <vehicle id="background.0" x="202.86" y="-1.60" angle="90.00" type="human" speed="13.64" pos="202.86" lane="e0_0" slope="0.00"/>
    </timestep>
    <timestep time="32.00">
        <vehicle id="background.0" x="209.64" y="-1.60" angle="90.00" type="human" speed="13.56" pos="209.64" lane="e0_0" slope="0.00"/>
    </timestep>
    <timestep time="32.50">
        <vehicle id="background.0" x="216.34" y="-1.60" angle="90.00" type="human" speed="13.41" pos="216.34" lane="e0_0" slope="0.00"/>
    </timestep>
    <timestep time="33.00">
        <vehicle id="background.0" x="223.21" y="-1.60" angle="90.00" type="human" speed="13.75" pos="223.21" lane="e0_0" slope="0.00"/>
    </timestep>
    <timestep time="33.50">
        <vehicle id="background.0" x="229.97" y="-1.60" angle="90.00" type="human" speed="13.50" pos="229.97" lane="e0_0" slope="0.00"/>
    </timestep>
    <timestep time="34.00">
        <vehicle id="background.0" x="236.69" y="-1.60" angle="90.00" type="human" speed="13.45" pos="236.69" lane="e0_0" slope="0.00"/>
    </timestep>
    <timestep time="34.50">
        <vehicle id="background.0" x="243.49" y="-1.60" angle="90.00" type="human" speed="13.59" pos="243.49" lane="e0_0" slope="0.00"/>
    </timestep>
    <timestep time="35.00">
        <vehicle id="background.0" x="250.27" y="-1.60" angle="90.00" type="human" speed="13.56" pos="250.27" lane="e0_0" slope="0.00"/>
    </timestep>
    <timestep time="35.50">
        <vehicle id="background.0" x="257.17" y="-1.60" angle="90.00" type="human" speed="13.81" pos="257.17" lane="e0_0" slope="0.00"/>
    </timestep>
    <timestep time="36.00">
        <vehicle id="background.0" x="264.07" y="-1.60" angle="90.00" type="human" speed="13.79" pos="264.07" lane="e0_0" slope="0.00"/>
    </timestep>
    <timestep time="36.50">
        <vehicle id="background.0" x="270.97" y="-1.60" angle="90.00" type="human" speed="13.80" pos="270.97" lane="e0_0" slope="0.00"/>
    </timestep>
    <timestep time="37.00">
        <vehicle id="background.0" x="277.82" y="-1.60" angle="90.00" type="human" speed="13.72" pos="277.82" lane="e0_0" slope="0.00"/>
    </timestep>
    <timestep time="37.50">
        <vehicle id="background.0" x="284.76" y="-1.60" angle="90.00" type="human" speed="13.87" pos="284.76" lane="e0_0" slope="0.00"/>
        <vehicle id="ego" x="5.10" y="-1.60" angle="90.00" type="ego_glosa_type" speed="0.00" pos="5.10" lane="e0_0" slope="0.00"/>
    </timestep>
    <timestep time="38.00">
        <vehicle id="background.0" x="291.56" y="-1.60" angle="90.00" type="human" speed="13.60" pos="291.56" lane="e0_0" slope="0.00"/>
        <vehicle id="ego" x="5.60" y="-1.60" angle="90.00" type="ego_glosa_type" speed="1.00" pos="5.60" lane="e0_0" slope="0.00"/>
    </timestep>
    <timestep time="38.50">
        <vehicle id="background.0" x="298.40" y="-1.60" angle="90.00" type="human" speed="13.68" pos="298.40" lane="e0_0" slope="0.00"/>
        <vehicle id="ego" x="6.60" y="-1.60" angle="90.00" type="ego_glosa_type" speed="2.00" pos="6.60" lane="e0_0" slope="0.00"/>
    </timestep>
    <timestep time="39.00">
        <vehicle id="background.0" x="305.00" y="-1.60" angle="90.00" type="human" speed="13.39" pos="5.00" lane="e1_0" slope="0.00"/>
        <vehicle id="ego" x="8.10" y="-1.60" angle="90.00" type="ego_glosa_type" speed="3.00" pos="8.10" lane="e0_0" slope="0.00"/>
    </timestep>
    <timestep time="39.50">
        <vehicle id="background.0" x="311.87" y="-1.60" angle="90.00" type="human" speed="13.74" pos="11.87" lane="e1_0" slope="0.00"/>
        <vehicle id="ego" x="10.10" y="-1.60" angle="90.00" type="ego_glosa_type" speed="4.00" pos="10.10" lane="e0_0" slope="0.00"/>
    </timestep>
    <timestep time="40.00">
        <vehicle id="background.0" x="318.72" y="-1.60" angle="90.00" type="human" speed="13.69" pos="18.72" lane="e1_0" slope="0.00"/>
        <vehicle id="ego" x="12.60" y="-1.60" angle="90.00" type="ego_glosa_type" speed="5.00" pos="12.60" lane="e0_0" slope="0.00"/>
    </timestep>
    <timestep time="40.50">
        <vehicle id="background.0" x="325.46" y="-1.60" angle="90.00" type="human" speed="13.49" pos="25.46" lane="e1_0" slope="0.00"/>
        <vehicle id="ego" x="15.60" y="-1.60" angle="90.00" type="ego_glosa_type" speed="6.00" pos="15.60" lane="e0_0" slope="0.00"/>
    </timestep>
    <timestep time="41.00">
        <vehicle id="background.0" x="332.25" y="-1.60" angle="90.00" type="human" speed="13.59" pos="32.25" lane="e1_0" slope="0.00"/>
        <vehicle id="ego" x="19.10" y="-1.60" angle="90.00" type="ego_glosa_type" speed="7.00" pos="19.10" lane="e0_0" slope="0.00"/>
    </timestep>
    <timestep time="41.50">
        <vehicle id="background.0" x="339.11" y="-1.60" angle="90.00" type="human" speed="13.71" pos="39.11" lane="e1_0" slope="0.00"/>
        <vehicle id="ego" x="23.10" y="-1.60" angle="90.00" type="ego_glosa_type" speed="8.00" pos="23.10" lane="e0_0" slope="0.00"/>
    </timestep>
    <timestep time="42.00">
        <vehicle id="background.0" x="346.02" y="-1.60" angle="90.00" type="human" speed="13.81" pos="46.02" lane="e1_0" slope="0.00"/>
        <vehicle id="ego" x="27.60" y="-1.60" angle="90.00" type="ego_glosa_type" speed="9.00" pos="27.60" lane="e0_0" slope="0.00"/>
    </timestep>
    <timestep time="42.50">
        <vehicle id="ego" x="32.60" y="-1.60" angle="90.00" type="ego_glosa_type" speed="10.00" pos="32.60" lane="e0_0" slope="0.00"/>
    </timestep>
    <timestep time="43.00">
        <vehicle id="ego" x="38.10" y="-1.60" angle="90.00" type="ego_glosa_type" speed="11.00" pos="38.10" lane="e0_0" slope="0.00"/>
    </timestep>
    <timestep time="43.50">
        <vehicle id="ego" x="44.10" y="-1.60" angle="90.00" type="ego_glosa_type" speed="12.00" pos="44.10" lane="e0_0" slope="0.00"/>
    </timestep>
    <timestep time="44.00">
        <vehicle id="ego" x="50.60" y="-1.60" angle="90.00" type="ego_glosa_type" speed="13.00" pos="50.60" lane="e0_0" slope="0.00"/>
    </timestep>
    <timestep time="44.50">
        <vehicle id="ego" x="57.55" y="-1.60" angle="90.00" type="ego_glosa_type" speed="13.89" pos="57.55" lane="e0_0" slope="0.00"/>
    </timestep>
    <timestep time="45.00">
        <vehicle id="ego" x="64.49" y="-1.60" angle="90.00" type="ego_glosa_type" speed="13.89" pos="64.49" lane="e0_0" slope="0.00"/>
    </timestep>
    <timestep time="45.50">
        <vehicle id="ego" x="71.44" y="-1.60" angle="90.00" type="ego_glosa_type" speed="13.89" pos="71.44" lane="e0_0" slope="0.00"/>
    </timestep>
    <timestep time="46.00">
        <vehicle id="ego" x="78.38" y="-1.60" angle="90.00" type="ego_glosa_type" speed="13.89" pos="78.38" lane="e0_0" slope="0.00"/>
    </timestep>
    <timestep time="46.50">
        <vehicle id="ego" x="85.32" y="-1.60" angle="90.00" type="ego_glosa_type" speed="13.89" pos="85.32" lane="e0_0" slope="0.00"/>
    </timestep>
    <timestep time="47.00">
        <vehicle id="ego" x="92.27" y="-1.60" angle="90.00" type="ego_glosa_type" speed="13.89" pos="92.27" lane="e0_0" slope="0.00"/>
    </timestep>
    <timestep time="47.50">
        <vehicle id="ego" x="99.21" y="-1.60" angle="90.00" type="ego_glosa_type" speed="13.89" pos="99.21" lane="e0_0" slope="0.00"/>
    </timestep>
    <timestep time="48.00">
        <vehicle id="background.1" x="5.10" y="-1.60" angle="90.00" type="human" speed="13.89" pos="5.10" lane="e0_0" slope="0.00"/>
        <vehicle id="ego" x="106.16" y="-1.60" angle="90.00" type="ego_glosa_type" speed="13.89" pos="106.16" lane="e0_0" slope="0.00"/>
    </timestep>
    <timestep time="48.50">
        <vehicle id="background.1" x="11.87" y="-1.60" angle="90.00" type="human" speed="13.53" pos="11.87" lane="e0_0" slope="0.00"/>
        <vehicle id="ego" x="113.10" y="-1.60" angle="90.00" type="ego_glosa_type" speed="13.89" pos="113.10" lane="e0_0" slope="0.00"/>
    </timestep>
    <timestep time="49.00">
        <vehicle id="background.1" x="18.81" y="-1.60" angle="90.00" type="human" speed="13.88" pos="18.81" lane="e0_0" slope="0.00"/>
        <vehicle id="ego" x="120.05" y="-1.60" angle="90.00" type="ego_glosa_type" speed="13.89" pos="120.05" lane="e0_0" slope="0.00"/>
    </timestep>
    <timestep time="49.50">
        <vehicle id="background.1" x="25.62" y="-1.60" angle="90.00" type="human" speed="13.63" pos="25.62" lane="e0_0" slope="0.00"/>
        <vehicle id="ego" x="126.99" y="-1.60" angle="90.00" type="ego_glosa_type" speed="13.89" pos="126.99" lane="e0_0" slope="0.00"/>
    </timestep>
    <timestep time="50.00">
        <vehicle id="background.1" x="32.40" y="-1.60" angle="90.00" type="human" speed="13.55" pos="32.40" lane="e0_0" slope="0.00"/>
        <vehicle id="ego" x="133.94" y="-1.60" angle="90.00" type="ego_glosa_type" speed="13.89" pos="133.94" lane="e0_0" slope="0.00"/>
    </timestep>
    <timestep time="50.50">
        <vehicle id="background.1" x="39.17" y="-1.60" angle="90.00" type="human" speed="13.55" pos="39.17" lane="e0_0" slope="0.00"/>
        <vehicle id="ego" x="140.88" y="-1.60" angle="90.00" type="ego_glosa_type" speed="13.89" pos="140.88" lane="e0_0" slope="0.00"/>
    </timestep>
    <timestep time="51.00">
        <vehicle id="background.1" x="46.00" y="-1.60" angle="90.00" type="human" speed="13.65" pos="46.00" lane="e0_0" slope="0.00"/>
        <vehicle id="ego" x="147.83" y="-1.60" angle="90.00" type="ego_glosa_type" speed="13.89" pos="147.83" lane="e0_0" slope="0.00"/>
    </timestep>
    <timestep time="51.50">
        <vehicle id="background.1" x="52.69" y="-1.60" angle="90.00" type="human" speed="13.39" pos="52.69" lane="e0_0" slope="0.00"/>
        <vehicle id="ego" x="154.77" y="-1.60" angle="90.00" type="ego_glosa_type" speed="13.89" pos="154.77" lane="e0_0" slope="0.00"/>
    </timestep>
    <timestep time="52.00">
        <vehicle id="background.1" x="59.55" y="-1.60" angle="90.00" type="human" speed="13.71" pos="59.55" lane="e0_0" slope="0.00"/>
        <vehicle id="ego" x="161.72" y="-1.60" angle="90.00" type="ego_glosa_type" speed="13.89" pos="161.72" lane="e0_0" slope="0.00"/>
    </timestep>
    <timestep time="52.50">
        <vehicle id="background.1" x="66.40" y="-1.60" angle="90.00" type="human" speed="13.71" pos="66.40" lane="e0_0" slope="0.00"/>
        <vehicle id="ego" x="168.66" y="-1.60" angle="90.00" type="ego_glosa_type" speed="13.89" pos="168.66" lane="e0_0" slope="0.00"/>
    </timestep>
    <timestep time="53.00">
        <vehicle id="background.1" x="73.31" y="-1.60" angle="90.00" type="human" speed="13.82" pos="73.31" lane="e0_0" slope="0.00"/>
        <vehicle id="ego" x="175.61" y="-1.60" angle="90.00" type="ego_glosa_type" speed="13.89" pos="175.61" lane="e0_0" slope="0.00"/>
    </timestep>
    <timestep time="53.50">
        <vehicle id="background.1" x="80.18" y="-1.60" angle="90.00" type="human" speed="13.72" pos="80.18" lane="e0_0" slope="0.00"/>
        <vehicle id="ego" x="182.55" y="-1.60" angle="90.00" type="ego_glosa_type" speed="13.89" pos="182.55" lane="e0_0" slope="0.00"/>
    </timestep>
    <timestep time="54.00">
        <vehicle id="background.1" x="87.08" y="-1.60" angle="90.00" type="human" speed="13.80" pos="87.08" lane="e0_0" slope="0.00"/>
        <vehicle id="ego" x="189.50" y="-1.60" angle="90.00" type="ego_glosa_type" speed="13.89" pos="189.50" lane="e0_0" slope="0.00"/>
    </timestep>
    <timestep time="54.50">
        <vehicle id="background.1" x="93.81" y="-1.60" angle="90.00" type="human" speed="13.47" pos="93.81" lane="e0_0" slope="0.00"/>
        <vehicle id="ego" x="196.44" y="-1.60" angle="90.00" type="ego_glosa_type" speed="13.89" pos="196.44" lane="e0_0" slope="0.00"/>
    </timestep>
    <timestep time="55.00">
        <vehicle id="background.1" x="100.61" y="-1.60" angle="90.00" type="human" speed="13.59" pos="100.61" lane="e0_0" slope="0.00"/>
        <vehicle id="ego" x="203.39" y="-1.60" angle="90.00" type="ego_glosa_type" speed="13.89" pos="203.39" lane="e0_0" slope="0.00"/>
    </timestep>
    <timestep time="55.50">
        <vehicle id="background.1" x="107.44" y="-1.60" angle="90.00" type="human" speed="13.66" pos="107.44" lane="e0_0" slope="0.00"/>
        <vehicle id="ego" x="210.33" y="-1.60" angle="90.00" type="ego_glosa_type" speed="13.89" pos="210.33" lane="e0_0" slope="0.00"/>
    </timestep>
    <timestep time="56.00">
        <vehicle id="background.1" x="114.21" y="-1.60" angle="90.00" type="human" speed="13.54" pos="114.21" lane="e0_0" slope="0.00"/>
        <vehicle id="ego" x="217.28" y="-1.60" angle="90.00" type="ego_glosa_type" speed="13.89" pos="217.28" lane="e0_0" slope="0.00"/>
    </timestep>
    <timestep time="56.50">
        <vehicle id="background.1" x="120.90" y="-1.60" angle="90.00" type="human" speed="13.39" pos="120.90" lane="e0_0" slope="0.00"/>
        <vehicle id="ego" x="224.22" y="-1.60" angle="90.00" type="ego_glosa_type" speed="13.89" pos="224.22" lane="e0_0" slope="0.00"/>
    </timestep>
    <timestep time="57.00">
        <vehicle id="background.1" x="127.69" y="-1.60" angle="90.00" type="human" speed="13.57" pos="127.69" lane="e0_0" slope="0.00"/>
        <vehicle id="ego" x="231.17" y="-1.60" angle="90.00" type="ego_glosa_type" speed="13.89" pos="231.17" lane="e0_0" slope="0.00"/>
    </timestep>
    <timestep time="57.50">
        <vehicle id="background.1" x="134.63" y="-1.60" angle="90.00" type="human" speed="13.88" pos="134.63" lane="e0_0" slope="0.00"/>
        <vehicle id="ego" x="238.11" y="-1.60" angle="90.00" type="ego_glosa_type" speed="13.89" pos="238.11" lane="e0_0" slope="0.00"/>
    </timestep>
    <timestep time="58.00">
        <vehicle id="background.1" x="141.54" y="-1.60" angle="90.00" type="human" speed="13.82" pos="141.54" lane="e0_0" slope="0.00"/>
        <vehicle id="ego" x="245.06" y="-1.60" angle="90.00" type="ego_glosa_type" speed="13.89" pos="245.06" lane="e0_0" slope="0.00"/>
    </timestep>
    <timestep time="58.50">
        <vehicle id="background.1" x="148.32" y="-1.60" angle="90.00" type="human" speed="13.57" pos="148.32" lane="e0_0" slope="0.00"/>
        <vehicle id="ego" x="252.00" y="-1.60" angle="90.00" type="ego_glosa_type" speed="13.89" pos="252.00" lane="e0_0" slope="0.00"/>
    </timestep>
    <timestep time="59.00">
        <vehicle id="background.1" x="155.27" y="-1.60" angle="90.00" type="human" speed="13.89" pos="155.27" lane="e0_0" slope="0.00"/>
        <vehicle id="ego" x="258.95" y="-1.60" angle="90.00" type="ego_glosa_type" speed="13.89" pos="258.95" lane="e0_0" slope="0.00"/>
    </timestep>
    <timestep time="59.50">
        <vehicle id="background.1" x="162.19" y="-1.60" angle="90.00" type="human" speed="13.85" pos="162.19" lane="e0_0" slope="0.00"/>
        <vehicle id="ego" x="265.89" y="-1.60" angle="90.00" type="ego_glosa_type" speed="13.89" pos="265.89" lane="e0_0" slope="0.00"/>
    </timestep>
    <timestep time="60.00">
        <vehicle id="background.1" x="169.00" y="-1.60" angle="90.00" type="human" speed="13.61" pos="169.00" lane="e0_0" slope="0.00"/>
        <vehicle id="ego" x="272.84" y="-1.60" angle="90.00" type="ego_glosa_type" speed="13.89" pos="272.84" lane="e0_0" slope="0.00"/>
    </timestep>
    <timestep time="60.50">
        <vehicle id="background.1" x="175.78" y="-1.60" angle="90.00" type="human" speed="13.56" pos="175.78" lane="e0_0" slope="0.00"/>
        <vehicle id="ego" x="279.78" y="-1.60" angle="90.00" type="ego_glosa_type" speed="13.89" pos="279.78" lane="e0_0" slope="0.00"/>
    </timestep>
    <timestep time="61.00">
        <vehicle id="background.1" x="182.51" y="-1.60" angle="90.00" type="human" speed="13.47" pos="182.51" lane="e0_0" slope="0.00"/>
        <vehicle id="ego" x="285.80" y="-1.60" angle="90.00" type="ego_glosa_type" speed="12.03" pos="285.80" lane="e0_0" slope="0.00"/>
    </timestep>
    <timestep time="61.50">
        <vehicle id="background.1" x="189.39" y="-1.60" angle="90.00" type="human" speed="13.76" pos="189.39" lane="e0_0" slope="0.00"/>
        <vehicle id="ego" x="290.69" y="-1.60" angle="90.00" type="ego_glosa_type" speed="9.78" pos="290.69" lane="e0_0" slope="0.00"/>
    </timestep>
    <timestep time="62.00">
        <vehicle id="background.1" x="196.15" y="-1.60" angle="90.00" type="human" speed="13.52" pos="196.15" lane="e0_0" slope="0.00"/>
        <vehicle id="ego" x="294.45" y="-1.60" angle="90.00" type="ego_glosa_type" speed="7.53" pos="294.45" lane="e0_0" slope="0.00"/>
    </timestep>
    <timestep time="62.50">
        <vehicle id="background.1" x="202.85" y="-1.60" angle="90.00" type="human" speed="13.39" pos="202.85" lane="e0_0" slope="0.00"/>
        <vehicle id="ego" x="297.09" y="-1.60" angle="90.00" type="ego_glosa_type" speed="5.28" pos="297.09" lane="e0_0" slope="0.00"/>
    </timestep>
    <timestep time="63.00">
        <vehicle id="background.1" x="209.79" y="-1.60" angle="90.00" type="human" speed="13.88" pos="209.79" lane="e0_0" slope="0.00"/>
        <vehicle id="ego" x="298.61" y="-1.60" angle="90.00" type="ego_glosa_type" speed="3.03" pos="298.61" lane="e0_0" slope="0.00"/>
    </timestep>
    <timestep time="63.50">
        <vehicle id="background.1" x="216.48" y="-1.60" angle="90.00" type="human" speed="13.39" pos="216.48" lane="e0_0" slope="0.00"/>
        <vehicle id="ego" x="299.00" y="-1.60" angle="90.00" type="ego_glosa_type" speed="0.78" pos="299.00" lane="e0_0" slope="0.00"/>
    </timestep>
    <timestep time="64.00">
        <vehicle id="background.1" x="223.40" y="-1.60" angle="90.00" type="human" speed="13.84" pos="223.40" lane="e0_0" slope="0.00"/>
        <vehicle id="ego" x="299.00" y="-1.60" angle="90.00" type="ego_glosa_type" speed="0.00" pos="299.00" lane="e0_0" slope="0.00"/>
    </timestep>
    <timestep time="64.50">
        <vehicle id="background.1" x="230.15" y="-1.60" angle="90.00" type="human" speed="13.49" pos="230.15" lane="e0_0" slope="0.00"/>
        <vehicle id="ego" x="299.00" y="-1.60" angle="90.00" type="ego_glosa_type" speed="0.00" pos="299.00" lane="e0_0" slope="0.00"/>
    </timestep>
    <timestep time="65.00">
        <vehicle id="background.1" x="237.07" y="-1.60" angle="90.00" type="human" speed="13.85" pos="237.07" lane="e0_0" slope="0.00"/>
        <vehicle id="ego" x="299.00" y="-1.60" angle="90.00" type="ego_glosa_type" speed="0.00" pos="299.00" lane="e0_0" slope="0.00"/>
    </timestep>
    <timestep time="65.50">
        <vehicle id="background.1" x="243.95" y="-1.60" angle="90.00" type="human" speed="13.75" pos="243.95" lane="e0_0" slope="0.00"/>
        <vehicle id="background.2" x="5.10" y="-1.60" angle="90.00" type="human" speed="13.24" pos="5.10" lane="e0_0" slope="0.00"/>
        <vehicle id="ego" x="299.00" y="-1.60" angle="90.00" type="ego_glosa_type" speed="0.00" pos="299.00" lane="e0_0" slope="0.00"/>
    </timestep>
    <timestep time="66.00">
        <vehicle id="background.1" x="250.87" y="-1.60" angle="90.00" type="human" speed="13.85" pos="250.87" lane="e0_0" slope="0.00"/>
        <vehicle id="background.2" x="11.48" y="-1.60" angle="90.00" type="human" speed="12.76" pos="11.48" lane="e0_0" slope="0.00"/>
        <vehicle id="ego" x="299.00" y="-1.60" angle="90.00" type="ego_glosa_type" speed="0.00" pos="299.00" lane="e0_0" slope="0.00"/>
    </timestep>
    <timestep time="66.50">
        <vehicle id="background.1" x="257.59" y="-1.60" angle="90.00" type="human" speed="13.43" pos="257.59" lane="e0_0" slope="0.00"/>
        <vehicle id="background.2" x="17.92" y="-1.60" angle="90.00" type="human" speed="12.88" pos="17.92" lane="e0_0" slope="0.00"/>
        <vehicle id="ego" x="299.00" y="-1.60" angle="90.00" type="ego_glosa_type" speed="0.00" pos="299.00" lane="e0_0" slope="0.00"/>
    </timestep>
    <timestep time="67.00">
        <vehicle id="background.1" x="264.33" y="-1.60" angle="90.00" type="human" speed="13.50" pos="264.33" lane="e0_0" slope="0.00"/>
        <vehicle id="background.2" x="24.36" y="-1.60" angle="90.00" type="human" speed="12.89" pos="24.36" lane="e0_0" slope="0.00"/>
        <vehicle id="ego" x="299.00" y="-1.60" angle="90.00" type="ego_glosa_type" speed="0.00" pos="299.00" lane="e0_0" slope="0.00"/>
    </timestep>
    <timestep time="67.50">
        <vehicle id="background.1" x="270.54" y="-1.60" angle="90.00" type="human" speed="12.40" pos="270.54" lane="e0_0" slope="0.00"/>
        <vehicle id="background.2" x="30.77" y="-1.60" angle="90.00" type="human" speed="12.81" pos="30.77" lane="e0_0" slope="0.00"/>
        <vehicle id="ego" x="299.00" y="-1.60" angle="90.00" type="ego_glosa_type" speed="0.00" pos="299.00" lane="e0_0" slope="0.00"/>
    </timestep>
    <timestep time="68.00">
        <vehicle id="background.1" x="275.87" y="-1.60" angle="90.00" type="human" speed="10.66" pos="275.87" lane="e0_0" slope="0.00"/>
        <vehicle id="background.2" x="37.17" y="-1.60" angle="90.00" type="human" speed="12.80" pos="37.17" lane="e0_0" slope="0.00"/>
        <vehicle id="background.3" x="5.10" y="-1.60" angle="90.00" type="human" speed="13.42" pos="5.10" lane="e0_0" slope="0.00"/>
        <vehicle id="ego" x="299.00" y="-1.60" angle="90.00" type="ego_glosa_type" speed="0.00" pos="299.00" lane="e0_0" slope="0.00"/>
    </timestep>
    <timestep time="68.50">
        <vehicle id="background.1" x="280.22" y="-1.60" angle="90.00" type="human" speed="8.70" pos="280.22" lane="e0_0" slope="0.00"/>
        <vehicle id="background.2" x="43.54" y="-1.60" angle="90.00" type="human" speed="12.75" pos="43.54" lane="e0_0" slope="0.00"/>
        <vehicle id="background.3" x="11.73" y="-1.60" angle="90.00" type="human" speed="13.26" pos="11.73" lane="e0_0" slope="0.00"/>
        <vehicle id="ego" x="299.00" y="-1.60" angle="90.00" type="ego_glosa_type" speed="0.00" pos="299.00" lane="e0_0" slope="0.00"/>
    </timestep>
    <timestep time="69.00">
        <vehicle id="background.1" x="283.75" y="-1.60" angle="90.00" type="human" speed="7.06" pos="283.75" lane="e0_0" slope="0.00"/>
        <vehicle id="background.2" x="50.02" y="-1.60" angle="90.00" type="human" speed="12.97" pos="50.02" lane="e0_0" slope="0.00"/>
        <vehicle id="background.3" x="18.43" y="-1.60" angle="90.00" type="human" speed="13.39" pos="18.43" lane="e0_0" slope="0.00"/>
        <vehicle id="ego" x="299.00" y="-1.60" angle="90.00" type="ego_glosa_type" speed="0.00" pos="299.00" lane="e0_0" slope="0.00"/>
    </timestep>
    <timestep time="69.50">
        <vehicle id="background.1" x="286.31" y="-1.60" angle="90.00" type="human" speed="5.12" pos="286.31" lane="e0_0" slope="0.00"/>