<?xml version="1.0" encoding="UTF-8"?>

<!-- generated on 2026-05-14 17:05:44 by Eclipse SUMO sumo Version 1.24.0
<sumoConfiguration xmlns:xsi="http://www.w3.org/2001/XMLSchema-instance" xsi:noNamespaceSchemaLocation="http://sumo.dlr.de/xsd/sumoConfiguration.xsd">

    <input>
        <net-file value="scenarios/simple_arterial/simple_arterial.net.xml"/>
        <route-files value="scenarios/simple_arterial/simple_arterial_glosa.rou.xml"/>
        <additional-files value="scenarios/simple_arterial/simple_arterial.tls.xml"/>
    </input>

    <output>
        <fcd-output value="runs/fcd_expert_glosa/episode_00020_seed_62.fcd.xml"/>
    </output>

    <time>
        <begin value="0"/>
        <end value="900"/>
        <step-length value="0.5"/>
    </time>

    <report>
        <no-warnings value="true"/>
    </report>

    <traci_server>
        <remote-port value="37703"/>
    </traci_server>

    <random_number>
        <seed value="62"/>
    </random_number>

</sumoConfiguration>
-->

<fcd-export xmlns:xsi="http://www.w3.org/2001/XMLSchema-instance" xsi:noNamespaceSchemaLocation="http://sumo.dlr.de/xsd/fcd_file.xsd">
    <timestep time="0.00"/>
    <timestep time="0.50"/>
    <timestep time="1.00"/>
    <timestep time="1.50"/>
    <timestep time="2.00"/>
    <timestep time="2.50"/>
    <timestep time="3.00"/>
    <timestep time="3.50"/>
    <timestep time="4.00"/>
    <timestep time="4.50"/>
    <timestep time="5.00"/>
    <timestep time="5.50"/>
    <timestep time="6.00"/>
    <timestep time="6.50"/>
    <timestep time="7.00"/>
    <timestep time="7.50"/>
    <timestep time="8.00"/>
    <timestep time="8.50">
        <vehicle id="background.0" x="5.10" y="-1.60" angle="90.00" type="human" speed="13.18" pos="5.10" lane="e0_0" slope="0.00"/>
    </timestep>
    <timestep time="9.00">
        <vehicle id="background.0" x="11.55" y="-1.60" angle="90.00" type="human" speed="12.90" pos="11.55" lane="e0_0" slope="0.00"/>
    </timestep>
    <timestep time="9.50">
        <vehicle id="background.0" x="18.02" y="-1.60" angle="90.00" type="human" speed="12.94" pos="18.02" lane="e0_0" slope="0.00"/>
        <vehicle id="background.1" x="5.10" y="-1.60" angle="90.00" type="human" speed="10.71" pos="5.10" lane="e0_0" slope="0.00"/>
    </timestep>
    <timestep time="10.00">
        <vehicle id="background.0" x="24.51" y="-1.60" angle="90.00" type="human" speed="12.98" pos="24.51" lane="e0_0" slope="0.00"/>
        <vehicle id="background.1" x="10.45" y="-1.60" angle="90.00" type="human" speed="10.70" pos="10.45" lane="e0_0" slope="0.00"/>
    </timestep>
    <timestep time="10.50">
        <vehicle id="background.0" x="31.09" y="-1.60" angle="90.00" type="human" speed="13.16" pos="31.09" lane="e0_0" slope="0.00"/>
        <vehicle id="background.1" x="16.00" y="-1.60" angle="90.00" type="human" speed="11.09" pos="16.00" lane="e0_0" slope="0.00"/>
    </timestep>
    <timestep time="11.00">
        <vehicle id="background.0" x="37.55" y="-1.60" angle="90.00" type="human" speed="12.92" pos="37.55" lane="e0_0" slope="0.00"/>
        <vehicle id="background.1" x="21.58" y="-1.60" angle="90.00" type="human" speed="11.15" pos="21.58" lane="e0_0" slope="0.00"/>
        <vehicle id="background.2" x="5.10" y="-1.60" angle="90.00" type="human" speed="10.43" pos="5.10" lane="e0_0" slope="0.00"/>
    </timestep>
    <timestep time="11.50">
        <vehicle id="background.0" x="44.10" y="-1.60" angle="90.00" type="human" speed="13.10" pos="44.10" lane="e0_0" slope="0.00"/>
        <vehicle id="background.1" x="27.21" y="-1.60" angle="90.00" type="human" speed="11.27" pos="27.21" lane="e0_0" slope="0.00"/>
        <vehicle id="background.2" x="10.19" y="-1.60" angle="90.00" type="human" speed="10.18" pos="10.19" lane="e0_0" slope="0.00"/>
    </timestep>
    <timestep time="12.00">
        <vehicle id="background.0" x="50.49" y="-1.60" angle="90.00" type="human" speed="12.79" pos="50.49" lane="e0_0" slope="0.00"/>
        <vehicle id="background.1" x="33.17" y="-1.60" angle="90.00" type="human" speed="11.91" pos="33.17" lane="e0_0" slope="0.00"/>
        <vehicle id="background.2" x="15.35" y="-1.60" angle="90.00" type="human" speed="10.32" pos="15.35" lane="e0_0" slope="0.00"/>
    </timestep>
    <timestep time="12.50">
        <vehicle id="background.0" x="56.95" y="-1.60" angle="90.00" type="human" speed="12.91" pos="56.95" lane="e0_0" slope="0.00"/>
        <vehicle id="background.1" x="38.95" y="-1.60" angle="90.00" type="human" speed="11.57" pos="38.95" lane="e0_0" slope="0.00"/>
        <vehicle id="background.2" x="20.87" y="-1.60" angle="90.00" type="human" speed="11.05" pos="20.87" lane="e0_0" slope="0.00"/>
    </timestep>
    <timestep time="13.00">
        <vehicle id="background.0" x="63.31" y="-1.60" angle="90.00" type="human" speed="12.73" pos="63.31" lane="e0_0" slope="0.00"/>
        <vehicle id="background.1" x="45.01" y="-1.60" angle="90.00" type="human" speed="12.11" pos="45.01" lane="e0_0" slope="0.00"/>
        <vehicle id="background.2" x="26.47" y="-1.60" angle="90.00" type="human" speed="11.20" pos="26.47" lane="e0_0" slope="0.00"/>
    </timestep>
    <timestep time="13.50">
        <vehicle id="background.0" x="69.88" y="-1.60" angle="90.00" type="human" speed="13.14" pos="69.88" lane="e0_0" slope="0.00"/>
        <vehicle id="background.1" x="51.07" y="-1.60" angle="90.00" type="human" speed="12.14" pos="51.07" lane="e0_0" slope="0.00"/>
        <vehicle id="background.2" x="32.26" y="-1.60" angle="90.00" type="human" speed="11.57" pos="32.26" lane="e0_0" slope="0.00"/>
    </timestep>
    <timestep time="14.00">
        <vehicle id="background.0" x="76.36" y="-1.60" angle="90.00" type="human" speed="12.95" pos="76.36" lane="e0_0" slope="0.00"/>
        <vehicle id="background.1" x="57.12" y="-1.60" angle="90.00" type="human" speed="12.09" pos="57.12" lane="e0_0" slope="0.00"/>
        <vehicle id="background.2" x="37.98" y="-1.60" angle="90.00" type="human" speed="11.45" pos="37.98" lane="e0_0" slope="0.00"/>
    </timestep>
    <timestep time="14.50">
        <vehicle id="background.0" x="82.78" y="-1.60" angle="90.00" type="human" speed="12.84" pos="82.78" lane="e0_0" slope="0.00"/>
        <vehicle id="background.1" x="63.22" y="-1.60" angle="90.00" type="human" speed="12.21" pos="63.22" lane="e0_0" slope="0.00"/>
        <vehicle id="background.2" x="43.75" y="-1.60" angle="90.00" type="human" speed="11.53" pos="43.75" lane="e0_0" slope="0.00"/>
    </timestep>
    <timestep time="15.00">
        <vehicle id="background.0" x="89.13" y="-1.60" angle="90.00" type="human" speed="12.71" pos="89.13" lane="e0_0" slope="0.00"/>
        <vehicle id="background.1" x="69.34" y="-1.60" angle="90.00" type="human" speed="12.25" pos="69.34" lane="e0_0" slope="0.00"/>
        <vehicle id="background.2" x="49.75" y="-1.60" angle="90.00" type="human" speed="12.00" pos="49.75" lane="e0_0" slope="0.00"/>
    </timestep>
    <timestep time="15.50">
        <vehicle id="background.0" x="95.58" y="-1.60" angle="90.00" type="human" speed="12.90" pos="95.58" lane="e0_0" slope="0.00"/>
        <vehicle id="background.1" x="75.36" y="-1.60" angle="90.00" type="human" speed="12.04" pos="75.36" lane="e0_0" slope="0.00"/>
        <vehicle id="background.2" x="55.85" y="-1.60" angle="90.00" type="human" speed="12.20" pos="55.85" lane="e0_0" slope="0.00"/>
    </timestep>
    <timestep time="16.00">
        <vehicle id="background.0" x="102.17" y="-1.60" angle="90.00" type="human" speed="13.17" pos="102.17" lane="e0_0" slope="0.00"/>
        <vehicle id="background.1" x="81.38" y="-1.60" angle="90.00" type="human" speed="12.04" pos="81.38" lane="e0_0" slope="0.00"/>
        <vehicle id="background.2" x="61.69" y="-1.60" angle="90.00" type="human" speed="11.68" pos="61.69" lane="e0_0" slope="0.00"/>
    </timestep>
    <timestep time="16.50">
        <vehicle id="background.0" x="108.61" y="-1.60" angle="90.00" type="human" speed="12.89" pos="108.61" lane="e0_0" slope="0.00"/>
        <vehicle id="background.1" x="87.40" y="-1.60" angle="90.00" type="human" speed="12.05" pos="87.40" lane="e0_0" slope="0.00"/>
        <vehicle id="background.2" x="67.49" y="-1.60" angle="90.00" type="human" speed="11.61" pos="67.49" lane="e0_0" slope="0.00"/>
    </timestep>
    <timestep time="17.00">
        <vehicle id="background.0" x="115.00" y="-1.60" angle="90.00" type="human" speed="12.78" pos="115.00" lane="e0_0" slope="0.00"/>
        <vehicle id="background.1" x="93.42" y="-1.60" angle="90.00" type="human" speed="12.03" pos="93.42" lane="e0_0" slope="0.00"/>
        <vehicle id="background.2" x="73.44" y="-1.60" angle="90.00" type="human" speed="11.89" pos="73.44" lane="e0_0" slope="0.00"/>
    </timestep>
    <timestep time="17.50">
        <vehicle id="background.0" x="121.42" y="-1.60" angle="90.00" type="human" speed="12.84" pos="121.42" lane="e0_0" slope="0.00"/>
        <vehicle id="background.1" x="99.41" y="-1.60" angle="90.00" type="human" speed="11.98" pos="99.41" lane="e0_0" slope="0.00"/>
        <vehicle id="background.2" x="79.29" y="-1.60" angle="90.00" type="human" speed="11.71" pos="79.29" lane="e0_0" slope="0.00"/>
    </timestep>
    <timestep time="18.00">
        <vehicle id="background.0" x="128.01" y="-1.60" angle="90.00" type="human" speed="13.17" pos="128.01" lane="e0_0" slope="0.00"/>
        <vehicle id="background.1" x="105.60" y="-1.60" angle="90.00" type="human" speed="12.38" pos="105.60" lane="e0_0" slope="0.00"/>
        <vehicle id="background.2" x="85.24" y="-1.60" angle="90.00" type="human" speed="11.90" pos="85.24" lane="e0_0" slope="0.00"/>
    </timestep>
    <timestep time="18.50">
        <vehicle id="background.0" x="134.40" y="-1.60" angle="90.00" type="human" speed="12.78" pos="134.40" lane="e0_0" slope="0.00"/>
        <vehicle id="background.1" x="111.59" y="-1.60" angle="90.00" type="human" speed="12.00" pos="111.59" lane="e0_0" slope="0.00"/>
        <vehicle id="background.2" x="91.49" y="-1.60" angle="90.00" type="human" speed="12.50" pos="91.49" lane="e0_0" slope="0.00"/>
    </timestep>
    <timestep time="19.00">
        <vehicle id="background.0" x="140.90" y="-1.60" angle="90.00" type="human" speed="13.02" pos="140.90" lane="e0_0" slope="0.00"/>
        <vehicle id="background.1" x="117.60" y="-1.60" angle="90.00" type="human" speed="12.01" pos="117.60" lane="e0_0" slope="0.00"/>
        <vehicle id="background.2" x="97.52" y="-1.60" angle="90.00" type="human" speed="12.06" pos="97.52" lane="e0_0" slope="0.00"/>
    </timestep>
    <timestep time="19.50">
        <vehicle id="background.0" x="147.33" y="-1.60" angle="90.00" type="human" speed="12.85" pos="147.33" lane="e0_0" slope="0.00"/>
        <vehicle id="background.1" x="123.81" y="-1.60" angle="90.00" type="human" speed="12.42" pos="123.81" lane="e0_0" slope="0.00"/>
        <vehicle id="background.2" x="103.42" y="-1.60" angle="90.00" type="human" speed="11.80" pos="103.42" lane="e0_0" slope="0.00"/>
    </timestep>
    <timestep time="20.00">
        <vehicle id="background.0" x="153.87" y="-1.60" angle="90.00" type="human" speed="13.08" pos="153.87" lane="e0_0" slope="0.00"/>
        <vehicle id="background.1" x="129.81" y="-1.60" angle="90.00" type="human" speed="11.99" pos="129.81" lane="e0_0" slope="0.00"/>
        <vehicle id="background.2" x="109.46" y="-1.60" angle="90.00" type="human" speed="12.07" pos="109.46" lane="e0_0" slope="0.00"/>
    </timestep>
    <timestep time="20.50">
        <vehicle id="background.0" x="160.36" y="-1.60" angle="90.00" type="human" speed="12.98" pos="160.36" lane="e0_0" slope="0.00"/>
        <vehicle id="background.1" x="136.03" y="-1.60" angle="90.00" type="human" speed="12.45" pos="136.03" lane="e0_0" slope="0.00"/>
        <vehicle id="background.2" x="115.50" y="-1.60" angle="90.00" type="human" speed="12.08" pos="115.50" lane="e0_0" slope="0.00"/>
    </timestep>
    <timestep time="21.00">
        <vehicle id="background.0" x="166.94" y="-1.60" angle="90.00" type="human" speed="13.17" pos="166.94" lane="e0_0" slope="0.00"/>
        <vehicle id="background.1" x="142.15" y="-1.60" angle="90.00" type="human" speed="12.23" pos="142.15" lane="e0_0" slope="0.00"/>
        <vehicle id="background.2" x="121.61" y="-1.60" angle="90.00" type="human" speed="12.22" pos="121.61" lane="e0_0" slope="0.00"/>
    </timestep>
    <timestep time="21.50">
        <vehicle id="background.0" x="173.46" y="-1.60" angle="90.00" type="human" speed="13.03" pos="173.46" lane="e0_0" slope="0.00"/>
        <vehicle id="background.1" x="148.21" y="-1.60" angle="90.00" type="human" speed="12.13" pos="148.21" lane="e0_0" slope="0.00"/>
        <vehicle id="background.2" x="127.70" y="-1.60" angle="90.00" type="human" speed="12.19" pos="127.70" lane="e0_0" slope="0.00"/>
    </timestep>
    <timestep time="22.00">
        <vehicle id="background.0" x="180.00" y="-1.60" angle="90.00" type="human" speed="13.09" pos="180.00" lane="e0_0" slope="0.00"/>
        <vehicle id="background.1" x="154.37" y="-1.60" angle="90.00" type="human" speed="12.33" pos="154.37" lane="e0_0" slope="0.00"/>
        <vehicle id="background.2" x="133.82" y="-1.60" angle="90.00" type="human" speed="12.24" pos="133.82" lane="e0_0" slope="0.00"/>
    </timestep>
    <timestep time="22.50">
        <vehicle id="background.0" x="186.53" y="-1.60" angle="90.00" type="human" speed="13.06" pos="186.53" lane="e0_0" slope="0.00"/>
        <vehicle id="background.1" x="160.41" y="-1.60" angle="90.00" type="human" speed="12.08" pos="160.41" lane="e0_0" slope="0.00"/>
        <vehicle id="background.2" x="139.91" y="-1.60" angle="90.00" type="human" speed="12.18" pos="139.91" lane="e0_0" slope="0.00"/>
    </timestep>
    <timestep time="23.00">
        <vehicle id="background.0" x="193.10" y="-1.60" angle="90.00" type="human" speed="13.13" pos="193.10" lane="e0_0" slope="0.00"/>
        <vehicle id="background.1" x="166.56" y="-1.60" angle="90.00" type="human" speed="12.30" pos="166.56" lane="e0_0" slope="0.00"/>
        <vehicle id="background.2" x="145.83" y="-1.60" angle="90.00" type="human" speed="11.84" pos="145.83" lane="e0_0" slope="0.00"/>
    </timestep>
    <timestep time="23.50">
        <vehicle id="background.0" x="199.58" y="-1.60" angle="90.00" type="human" speed="12.95" pos="199.58" lane="e0_0" slope="0.00"/>
        <vehicle id="background.1" x="172.59" y="-1.60" angle="90.00" type="human" speed="12.06" pos="172.59" lane="e0_0" slope="0.00"/>
        <vehicle id="background.2" x="151.96" y="-1.60" angle="90.00" type="human" speed="12.26" pos="151.96" lane="e0_0" slope="0.00"/>
    </timestep>
    <timestep time="24.00">
        <vehicle id="background.0" x="205.94" y="-1.60" angle="90.00" type="human" speed="12.73" pos="205.94" lane="e0_0" slope="0.00"/>
        <vehicle id="background.1" x="178.80" y="-1.60" angle="90.00" type="human" speed="12.42" pos="178.80" lane="e0_0" slope="0.00"/>
        <vehicle id="background.2" x="158.04" y="-1.60" angle="90.00" type="human" speed="12.16" pos="158.04" lane="e0_0" slope="0.00"/>
    </timestep>
    <timestep time="24.50">
        <vehicle id="background.0" x="212.43" y="-1.60" angle="90.00" type="human" speed="12.98" pos="212.43" lane="e0_0" slope="0.00"/>
        <vehicle id="background.1" x="184.82" y="-1.60" angle="90.00" type="human" speed="12.04" pos="184.82" lane="e0_0" slope="0.00"/>
        <vehicle id="background.2" x="164.31" y="-1.60" angle="90.00" type="human" speed="12.53" pos="164.31" lane="e0_0" slope="0.00"/>
    </timestep>
    <timestep time="25.00">
        <vehicle id="background.0" x="218.83" y="-1.60" angle="90.00" type="human" speed="12.79" pos="218.83" lane="e0_0" slope="0.00"/>
        <vehicle id="background.1" x="190.91" y="-1.60" angle="90.00" type="human" speed="12.17" pos="190.91" lane="e0_0" slope="0.00"/>
        <vehicle id="background.2" x="170.27" y="-1.60" angle="90.00" type="human" speed="11.93" pos="170.27" lane="e0_0" slope="0.00"/>
    </timestep>
    <timestep time="25.50">
        <vehicle id="background.0" x="225.19" y="-1.60" angle="90.00" type="human" speed="12.73" pos="225.19" lane="e0_0" slope="0.00"/>
        <vehicle id="background.1" x="197.08" y="-1.60" angle="90.00" type="human" speed="12.35" pos="197.08" lane="e0_0" slope="0.00"/>
        <vehicle id="background.2" x="176.45" y="-1.60" angle="90.00" type="human" speed="12.36" pos="176.45" lane="e0_0" slope="0.00"/>
    </timestep>
    <timestep time="26.00">
        <vehicle id="background.0" x="231.53" y="-1.60" angle="90.00" type="human" speed="12.69" pos="231.53" lane="e0_0" slope="0.00"/>
        <vehicle id="background.1" x="203.07" y="-1.60" angle="90.00" type="human" speed="11.98" pos="203.07" lane="e0_0" slope="0.00"/>
        <vehicle id="background.2" x="182.56" y="-1.60" angle="90.00" type="human" speed="12.23" pos="182.56" lane="e0_0" slope="0.00"/>
    </timestep>
    <timestep time="26.50">
        <vehicle id="background.0" x="237.95" y="-1.60" angle="90.00" type="human" speed="12.84" pos="237.95" lane="e0_0" slope="0.00"/>
        <vehicle id="background.1" x="209.14" y="-1.60" angle="90.00" type="human" speed="12.14" pos="209.14" lane="e0_0" slope="0.00"/>
        <vehicle id="background.2" x="188.56" y="-1.60" angle="90.00" type="human" speed="12.00" pos="188.56" lane="e0_0" slope="0.00"/>
    </timestep>
    <timestep time="27.00">
        <vehicle id="background.0" x="244.35" y="-1.60" angle="90.00" type="human" speed="12.80" pos="244.35" lane="e0_0" slope="0.00"/>
        <vehicle id="background.1" x="215.14" y="-1.60" angle="90.00" type="human" speed="12.00" pos="215.14" lane="e0_0" slope="0.00"/>
        <vehicle id="background.2" x="194.75" y="-1.60" angle="90.00" type="human" speed="12.39" pos="194.75" lane="e0_0" slope="0.00"/>
    </timestep>
    <timestep time="27.50">
        <vehicle id="background.0" x="250.77" y="-1.60" angle="90.00" type="human" speed="12.84" pos="250.77" lane="e0_0" slope="0.00"/>
        <vehicle id="background.1" x="221.21" y="-1.60" angle="90.00" type="human" speed="12.14" pos="221.21" lane="e0_0" slope="0.00"/>
        <vehicle id="background.2" x="200.73" y="-1.60" angle="90.00" type="human" speed="11.95" pos="200.73" lane="e0_0" slope="0.00"/>
    </timestep>
    <timestep time="28.00">
        <vehicle id="background.0" x="257.20" y="-1.60" angle="90.00" type="human" speed="12.86" pos="257.20" lane="e0_0" slope="0.00"/>
        <vehicle id="background.1" x="227.35" y="-1.60" angle="90.00" type="human" speed="12.27" pos="227.35" lane="e0_0" slope="0.00"/>
        <vehicle id="background.2" x="206.80" y="-1.60" angle="90.00" type="human" speed="12.15" pos="206.80" lane="e0_0" slope="0.00"/>
    </timestep>
    <timestep time="28.50">
        <vehicle id="background.0" x="263.66" y="-1.60" angle="90.00" type="human" speed="12.91" pos="263.66" lane="e0_0" slope="0.00"/>
        <vehicle id="background.1" x="233.34" y="-1.60" angle="90.00" type="human" speed="11.99" pos="233.34" lane="e0_0" slope="0.00"/>
        <vehicle id="background.2" x="212.81" y="-1.60" angle="90.00" type="human" speed="12.01" pos="212.81" lane="e0_0" slope="0.00"/>
    </timestep>
    <timestep time="29.00">
        <vehicle id="background.0" x="270.01" y="-1.60" angle="90.00" type="human" speed="12.71" pos="270.01" lane="e0_0" slope="0.00"/>
        <vehicle id="background.1" x="239.56" y="-1.60" angle="90.00" type="human" speed="12.45" pos="239.56" lane="e0_0" slope="0.00"/>
        <vehicle id="background.2" x="218.88" y="-1.60" angle="90.00" type="human" speed="12.15" pos="218.88" lane="e0_0" slope="0.00"/>
    </timestep>
    <timestep time="29.50">
        <vehicle id="background.0" x="276.38" y="-1.60" angle="90.00" type="human" speed="12.72" pos="276.38" lane="e0_0" slope="0.00"/>
        <vehicle id="background.1" x="245.80" y="-1.60" angle="90.00" type="human" speed="12.47" pos="245.80" lane="e0_0" slope="0.00"/>
        <vehicle id="background.2" x="225.00" y="-1.60" angle="90.00" type="human" speed="12.23" pos="225.00" lane="e0_0" slope="0.00"/>
    </timestep>
    <timestep time="30.00">
        <vehicle id="background.0" x="282.75" y="-1.60" angle="90.00" type="human" speed="12.74" pos="282.75" lane="e0_0" slope="0.00"/>
        <vehicle id="background.1" x="251.79" y="-1.60" angle="90.00" type="human" speed="12.00" pos="251.79" lane="e0_0" slope="0.00"/>
        <vehicle id="background.2" x="231.14" y="-1.60" angle="90.00" type="human" speed="12.27" pos="231.14" lane="e0_0" slope="0.00"/>
        <vehicle id="background.3" x="5.10" y="-1.60" angle="90.00" type="human" speed="12.93" pos="5.10" lane="e0_0" slope="0.00"/>
    </timestep>
    <timestep time="30.50">
        <vehicle id="background.0" x="289.33" y="-1.60" angle="90.00" type="human" speed="13.18" pos="289.33" lane="e0_0" slope="0.00"/>
        <vehicle id="background.1" x="257.78" y="-1.60" angle="90.00" type="human" speed="11.98" pos="257.78" lane="e0_0" slope="0.00"/>
        <vehicle id="background.2" x="237.07" y="-1.60" angle="90.00" type="human" speed="11.87" pos="237.07" lane="e0_0" slope="0.00"/>
        <vehicle id="background.3" x="11.40" y="-1.60" angle="90.00" type="human" speed="12.60" pos="11.40" lane="e0_0" slope="0.00"/>
    </timestep>
    <timestep time="31.00">
        <vehicle id="background.0" x="295.72" y="-1.60" angle="90.00" type="human" speed="12.77" pos="295.72" lane="e0_0" slope="0.00"/>
        <vehicle id="background.1" x="263.85" y="-1.60" angle="90.00" type="human" speed="12.13" pos="263.85" lane="e0_0" slope="0.00"/>
        <vehicle id="background.2" x="243.10" y="-1.60" angle="90.00" type="human" speed="12.05" pos="243.10" lane="e0_0" slope="0.00"/>
        <vehicle id="background.3" x="17.67" y="-1.60" angle="90.00" type="human" speed="12.54" pos="17.67" lane="e0_0" slope="0.00"/>
    </timestep>
    <timestep time="31.50">
        <vehicle id="background.0" x="302.02" y="-1.60" angle="90.00" type="human" speed="12.81" pos="2.02" lane="e1_0" slope="0.00"/>
        <vehicle id="background.1" x="269.90" y="-1.60" angle="90.00" type="human" speed="12.11" pos="269.90" lane="e0_0" slope="0.00"/>
        <vehicle id="background.2" x="249.09" y="-1.60" angle="90.00" type="human" speed="11.98" pos="249.09" lane="e0_0" slope="0.00"/>
        <vehicle id="background.3" x="23.95" y="-1.60" angle="90.00" type="human" speed="12.55" pos="23.95" lane="e0_0" slope="0.00"/>
    </timestep>
    <timestep time="32.00">
        <vehicle id="background.0" x="308.52" y="-1.60" angle="90.00" type="human" speed="12.99" pos="8.52" lane="e1_0" slope="0.00"/>
        <vehicle id="background.1" x="276.08" y="-1.60" angle="90.00" type="human" speed="12.35" pos="276.08" lane="e0_0" slope="0.00"/>
        <vehicle id="background.2" x="255.21" y="-1.60" angle="90.00" type="human" speed="12.24" pos="255.21" lane="e0_0" slope="0.00"/>
        <vehicle id="background.3" x="30.16" y="-1.60" angle="90.00" type="human" speed="12.44" pos="30.16" lane="e0_0" slope="0.00"/>
    </timestep>
    <timestep time="32.50">
        <vehicle id="background.0" x="314.92" y="-1.60" angle="90.00" type="human" speed="12.79" pos="14.92" lane="e1_0" slope="0.00"/>
        <vehicle id="background.1" x="282.26" y="-1.60" angle="90.00" type="human" speed="12.36" pos="282.26" lane="e0_0" slope="0.00"/>
        <vehicle id="background.2" x="261.39" y="-1.60" angle="90.00" type="human" speed="12.36" pos="261.39" lane="e0_0" slope="0.00"/>
        <vehicle id="background.3" x="36.62" y="-1.60" angle="90.00" type="human" speed="12.91" pos="36.62" lane="e0_0" slope="0.00"/>
    </timestep>
    <timestep time="33.00">
        <vehicle id="background.0" x="321.37" y="-1.60" angle="90.00" type="human" speed="12.90" pos="21.37" lane="e1_0" slope="0.00"/>
        <vehicle id="background.1" x="288.37" y="-1.60" angle="90.00" type="human" speed="12.23" pos="288.37" lane="e0_0" slope="0.00"/>
        <vehicle id="background.2" x="267.54" y="-1.60" angle="90.00" type="human" speed="12.31" pos="267.54" lane="e0_0" slope="0.00"/>
        <vehicle id="background.3" x="42.93" y="-1.60" angle="90.00" type="human" speed="12.63" pos="42.93" lane="e0_0" slope="0.00"/>
    </timestep>
    <timestep time="33.50">
        <vehicle id="background.0" x="327.82" y="-1.60" angle="90.00" type="human" speed="12.90" pos="27.82" lane="e1_0" slope="0.00"/>
        <vehicle id="background.1" x="294.58" y="-1.60" angle="90.00" type="human" speed="12.42" pos="294.58" lane="e0_0" slope="0.00"/>
        <vehicle id="background.2" x="273.67" y="-1.60" angle="90.00" type="human" speed="12.24" pos="273.67" lane="e0_0" slope="0.00"/>
        <vehicle id="background.3" x="49.32" y="-1.60" angle="90.00" type="human" speed="12.78" pos="49.32" lane="e0_0" slope="0.00"/>
    </timestep>
    <timestep time="34.00">
        <vehicle id="background.0" x="334.26" y="-1.60" angle="90.00" type="human" speed="12.88" pos="34.26" lane="e1_0" slope="0.00"/>
        <vehicle id="background.1" x="300.57" y="-1.60" angle="90.00" type="human" speed="12.17" pos="0.57" lane="e1_0" slope="0.00"/>
        <vehicle id="background.2" x="280.01" y="-1.60" angle="90.00" type="human" speed="12.69" pos="280.01" lane="e0_0" slope="0.00"/>
        <vehicle id="background.3" x="55.54" y="-1.60" angle="90.00" type="human" speed="12.44" pos="55.54" lane="e0_0" slope="0.00"/>
    </timestep>
    <timestep time="34.50">
        <vehicle id="background.0" x="340.63" y="-1.60" angle="90.00" type="human" speed="12.75" pos="40.63" lane="e1_0" slope="0.00"/>
        <vehicle id="background.1" x="306.69" y="-1.60" angle="90.00" type="human" speed="12.25" pos="6.69" lane="e1_0" slope="0.00"/>
        <vehicle id="background.2" x="285.99" y="-1.60" angle="90.00" type="human" speed="11.96" pos="285.99" lane="e0_0" slope="0.00"/>
        <vehicle id="background.3" x="61.85" y="-1.60" angle="90.00" type="human" speed="12.62" pos="61.85" lane="e0_0" slope="0.00"/>
    </timestep>
    <timestep time="35.00">
        <vehicle id="background.0" x="347.14" y="-1.60" angle="90.00" type="human" speed="13.02" pos="47.14" lane="e1_0" slope="0.00"/>
        <vehicle id="background.1" x="312.81" y="-1.60" angle="90.00" type="human" speed="12.24" pos="12.81" lane="e1_0" slope="0.00"/>
        <vehicle id="background.2" x="292.13" y="-1.60" angle="90.00" type="human" speed="12.28" pos="292.13" lane="e0_0" slope="0.00"/>
        <vehicle id="background.3" x="68.23" y="-1.60" angle="90.00" type="human" speed="12.76" pos="68.23" lane="e0_0" slope="0.00"/>
    </timestep>
    <timestep time="35.50">
        <vehicle id="background.1" x="318.97" y="-1.60" angle="90.00" type="human" speed="12.32" pos="18.97" lane="e1_0" slope="0.00"/>
        <vehicle id="background.2" x="298.33" y="-1.60" angle="90.00" type="human" speed="12.41" pos="298.33" lane="e0_0" slope="0.00"/>
        <vehicle id="background.3" x="74.65" y="-1.60" angle="90.00" type="human" speed="12.83" pos="74.65" lane="e0_0" slope="0.00"/>
    </timestep>
    <timestep time="36.00">
        <vehicle id="background.1" x="324.99" y="-1.60" angle="90.00" type="human" speed="12.04" pos="24.99" lane="e1_0" slope="0.00"/>
        <vehicle id="background.2" x="304.29" y="-1.60" angle="90.00" type="human" speed="12.11" pos="4.29" lane="e1_0" slope="0.00"/>
        <vehicle id="background.3" x="80.89" y="-1.60" angle="90.00" type="human" speed="12.49" pos="80.89" lane="e0_0" slope="0.00"/>
    </timestep>
    <timestep time="36.50">
        <vehicle id="background.1" x="331.15" y="-1.60" angle="90.00" type="human" speed="12.32" pos="31.15" lane="e1_0" slope="0.00"/>
        <vehicle id="background.2" x="310.29" y="-1.60" angle="90.00" type="human" speed="12.01" pos="10.29" lane="e1_0" slope="0.00"/>
        <vehicle id="background.3" x="87.10" y="-1.60" angle="90.00" type="human" speed="12.43" pos="87.10" lane="e0_0" slope="0.00"/>
    </timestep>
    <timestep time="37.00">
        <vehicle id="background.1" x="337.31" y="-1.60" angle="90.00" type="human" speed="12.33" pos="37.31" lane="e1_0" slope="0.00"/>
        <vehicle id="background.2" x="316.37" y="-1.60" angle="90.00" type="human" speed="12.15" pos="16.37" lane="e1_0" slope="0.00"/>
        <vehicle id="background.3" x="93.37" y="-1.60" angle="90.00" type="human" speed="12.53" pos="93.37" lane="e0_0" slope="0.00"/>
    </timestep>
    <timestep time="37.50">
        <vehicle id="background.1" x="343.42" y="-1.60" angle="90.00" type="human" speed="12.21" pos="43.42" lane="e1_0" slope="0.00"/>
        <vehicle id="background.2" x="322.48" y="-1.60" angle="90.00" type="human" speed="12.23" pos="22.48" lane="e1_0" slope="0.00"/>
        <vehicle id="background.3" x="99.73" y="-1.60" angle="90.00" type="human" speed="12.73" pos="99.73" lane="e0_0" slope="0.00"/>
    </timestep>
    <timestep time="38.00">
        <vehicle id="background.1" x="349.56" y="-1.60" angle="90.00" type="human" speed="12.28" pos="49.56" lane="e1_0" slope="0.00"/>
        <vehicle id="background.2" x="328.63" y="-1.60" angle="90.00" type="human" speed="12.30" pos="28.63" lane="e1_0" slope="0.00"/>
        <vehicle id="background.3" x="106.16" y="-1.60" angle="90.00" type="human" speed="12.85" pos="106.16" lane="e0_0" slope="0.00"/>
    </timestep>
    <timestep time="38.50">
        <vehicle id="background.2" x="334.69" y="-1.60" angle="90.00" type="human" speed="12.13" pos="34.69" lane="e1_0" slope="0.00"/>
        <vehicle id="background.3" x="112.57" y="-1.60" angle="90.00" type="human" speed="12.83" pos="112.57" lane="e0_0" slope="0.00"/>
    </timestep>
    <timestep time="39.00">
        <vehicle id="background.2" x="341.12" y="-1.60" angle="90.00" type="human" speed="12.85" pos="41.12" lane="e1_0" slope="0.00"/>
        <vehicle id="background.3" x="118.85" y="-1.60" angle="90.00" type="human" speed="12.56" pos="118.85" lane="e0_0" slope="0.00"/>
    </timestep>
    <timestep time="39.50">