<?xml version="1.0" encoding="UTF-8"?>

<!-- generated on 2026-05-14 17:06:51 by Eclipse SUMO sumo Version 1.24.0
<sumoConfiguration xmlns:xsi="http://www.w3.org/2001/XMLSchema-instance" xsi:noNamespaceSchemaLocation="http://sumo.dlr.de/xsd/sumoConfiguration.xsd">

    <input>
        <net-file value="scenarios/simple_arterial/simple_arterial.net.xml"/>
        <route-files value="scenarios/simple_arterial/simple_arterial_glosa.rou.xml"/>
        <additional-files value="scenarios/simple_arterial/simple_arterial.tls.xml"/>
    </input>

    <output>
        <fcd-output value="runs/fcd_expert_glosa/episode_00079_seed_121.fcd.xml"/>
    </output>

    <time>
        <begin value="0"/>
        <end value="900"/>
        <step-length value="0.5"/>
    </time>

    <report>
        <no-warnings value="true"/>
    </report>

    <traci_server>
        <remote-port value="37703"/>
    </traci_server>

    <random_number>
        <seed value="121"/>
    </random_number>

</sumoConfiguration>
-->

<fcd-export xmlns:xsi="http://www.w3.org/2001/XMLSchema-instance" xsi:noNamespaceSchemaLocation="http://sumo.dlr.de/xsd/fcd_file.xsd">
    <timestep time="0.00"/>
    <timestep time="0.50"/>
    <timestep time="1.00"/>
    <timestep time="1.50"/>
    <timestep time="2.00"/>
    <timestep time="2.50"/>
    <timestep time="3.00"/>
    <timestep time="3.50"/>
    <timestep time="4.00"/>
    <timestep time="4.50"/>
    <timestep time="5.00"/>
    <timestep time="5.50"/>
    <timestep time="6.00"/>
    <timestep time="6.50"/>
    <timestep time="7.00"/>
    <timestep time="7.50"/>
    <timestep time="8.00"/>
    <timestep time="8.50"/>
    <timestep time="9.00"/>
    <timestep time="9.50"/>
    <timestep time="10.00"/>
    <timestep time="10.50"/>
    <timestep time="11.00"/>
    <timestep time="11.50"/>
    <timestep time="12.00">
        <vehicle id="background.0" x="5.10" y="-1.60" angle="90.00" type="human" speed="13.51" pos="5.10" lane="e0_0" slope="0.00"/>
    </timestep>
    <timestep time="12.50">
        <vehicle id="background.0" x="11.82" y="-1.60" angle="90.00" type="human" speed="13.43" pos="11.82" lane="e0_0" slope="0.00"/>
    </timestep>
    <timestep time="13.00">
        <vehicle id="background.0" x="18.37" y="-1.60" angle="90.00" type="human" speed="13.11" pos="18.37" lane="e0_0" slope="0.00"/>
    </timestep>
    <timestep time="13.50">
        <vehicle id="background.0" x="24.95" y="-1.60" angle="90.00" type="human" speed="13.16" pos="24.95" lane="e0_0" slope="0.00"/>
    </timestep>
    <timestep time="14.00">
        <vehicle id="background.0" x="31.59" y="-1.60" angle="90.00" type="human" speed="13.27" pos="31.59" lane="e0_0" slope="0.00"/>
    </timestep>
    <timestep time="14.50">
        <vehicle id="background.0" x="38.28" y="-1.60" angle="90.00" type="human" speed="13.38" pos="38.28" lane="e0_0" slope="0.00"/>
    </timestep>
    <timestep time="15.00">
        <vehicle id="background.0" x="44.82" y="-1.60" angle="90.00" type="human" speed="13.09" pos="44.82" lane="e0_0" slope="0.00"/>
    </timestep>
    <timestep time="15.50">
        <vehicle id="background.0" x="51.47" y="-1.60" angle="90.00" type="human" speed="13.28" pos="51.47" lane="e0_0" slope="0.00"/>
    </timestep>
    <timestep time="16.00">
        <vehicle id="background.0" x="58.17" y="-1.60" angle="90.00" type="human" speed="13.40" pos="58.17" lane="e0_0" slope="0.00"/>
    </timestep>
    <timestep time="16.50">
        <vehicle id="background.0" x="64.82" y="-1.60" angle="90.00" type="human" speed="13.31" pos="64.82" lane="e0_0" slope="0.00"/>
    </timestep>
    <timestep time="17.00">
        <vehicle id="background.0" x="71.40" y="-1.60" angle="90.00" type="human" speed="13.15" pos="71.40" lane="e0_0" slope="0.00"/>
    </timestep>
    <timestep time="17.50">
        <vehicle id="background.0" x="78.00" y="-1.60" angle="90.00" type="human" speed="13.21" pos="78.00" lane="e0_0" slope="0.00"/>
    </timestep>
    <timestep time="18.00">
        <vehicle id="background.0" x="84.52" y="-1.60" angle="90.00" type="human" speed="13.04" pos="84.52" lane="e0_0" slope="0.00"/>
    </timestep>
    <timestep time="18.50">
        <vehicle id="background.0" x="91.13" y="-1.60" angle="90.00" type="human" speed="13.22" pos="91.13" lane="e0_0" slope="0.00"/>
    </timestep>
    <timestep time="19.00">
        <vehicle id="background.0" x="97.65" y="-1.60" angle="90.00" type="human" speed="13.05" pos="97.65" lane="e0_0" slope="0.00"/>
    </timestep>
    <timestep time="19.50">
        <vehicle id="background.0" x="104.36" y="-1.60" angle="90.00" type="human" speed="13.40" pos="104.36" lane="e0_0" slope="0.00"/>
    </timestep>
    <timestep time="20.00">
        <vehicle id="background.0" x="111.05" y="-1.60" angle="90.00" type="human" speed="13.39" pos="111.05" lane="e0_0" slope="0.00"/>
    </timestep>
    <timestep time="20.50">
        <vehicle id="background.0" x="117.76" y="-1.60" angle="90.00" type="human" speed="13.42" pos="117.76" lane="e0_0" slope="0.00"/>
    </timestep>
    <timestep time="21.00">
        <vehicle id="background.0" x="124.37" y="-1.60" angle="90.00" type="human" speed="13.22" pos="124.37" lane="e0_0" slope="0.00"/>
    </timestep>
    <timestep time="21.50">
        <vehicle id="background.0" x="130.95" y="-1.60" angle="90.00" type="human" speed="13.16" pos="130.95" lane="e0_0" slope="0.00"/>
    </timestep>
    <timestep time="22.00">
        <vehicle id="background.0" x="137.48" y="-1.60" angle="90.00" type="human" speed="13.06" pos="137.48" lane="e0_0" slope="0.00"/>
    </timestep>
    <timestep time="22.50">
        <vehicle id="background.0" x="144.11" y="-1.60" angle="90.00" type="human" speed="13.28" pos="144.11" lane="e0_0" slope="0.00"/>
    </timestep>
    <timestep time="23.00">
        <vehicle id="background.0" x="150.63" y="-1.60" angle="90.00" type="human" speed="13.04" pos="150.63" lane="e0_0" slope="0.00"/>
    </timestep>
    <timestep time="23.50">
        <vehicle id="background.0" x="157.27" y="-1.60" angle="90.00" type="human" speed="13.27" pos="157.27" lane="e0_0" slope="0.00"/>
    </timestep>
    <timestep time="24.00">
        <vehicle id="background.0" x="164.02" y="-1.60" angle="90.00" type="human" speed="13.50" pos="164.02" lane="e0_0" slope="0.00"/>
    </timestep>
    <timestep time="24.50">
        <vehicle id="background.0" x="170.75" y="-1.60" angle="90.00" type="human" speed="13.46" pos="170.75" lane="e0_0" slope="0.00"/>
    </timestep>
    <timestep time="25.00">
        <vehicle id="background.0" x="177.44" y="-1.60" angle="90.00" type="human" speed="13.39" pos="177.44" lane="e0_0" slope="0.00"/>
    </timestep>
    <timestep time="25.50">
        <vehicle id="background.0" x="184.11" y="-1.60" angle="90.00" type="human" speed="13.33" pos="184.11" lane="e0_0" slope="0.00"/>
    </timestep>
    <timestep time="26.00">
        <vehicle id="background.0" x="190.69" y="-1.60" angle="90.00" type="human" speed="13.16" pos="190.69" lane="e0_0" slope="0.00"/>
    </timestep>
    <timestep time="26.50">
        <vehicle id="background.0" x="197.44" y="-1.60" angle="90.00" type="human" speed="13.50" pos="197.44" lane="e0_0" slope="0.00"/>
    </timestep>
    <timestep time="27.00">
        <vehicle id="background.0" x="203.98" y="-1.60" angle="90.00" type="human" speed="13.08" pos="203.98" lane="e0_0" slope="0.00"/>
    </timestep>
    <timestep time="27.50">
        <vehicle id="background.0" x="210.67" y="-1.60" angle="90.00" type="human" speed="13.39" pos="210.67" lane="e0_0" slope="0.00"/>
    </timestep>
    <timestep time="28.00">
        <vehicle id="background.0" x="217.19" y="-1.60" angle="90.00" type="human" speed="13.03" pos="217.19" lane="e0_0" slope="0.00"/>
    </timestep>
    <timestep time="28.50">
        <vehicle id="background.0" x="223.81" y="-1.60" angle="90.00" type="human" speed="13.23" pos="223.81" lane="e0_0" slope="0.00"/>
    </timestep>
    <timestep time="29.00">
        <vehicle id="background.0" x="230.50" y="-1.60" angle="90.00" type="human" speed="13.39" pos="230.50" lane="e0_0" slope="0.00"/>
    </timestep>
    <timestep time="29.50">
        <vehicle id="background.0" x="237.21" y="-1.60" angle="90.00" type="human" speed="13.41" pos="237.21" lane="e0_0" slope="0.00"/>
    </timestep>
    <timestep time="30.00">
        <vehicle id="background.0" x="243.85" y="-1.60" angle="90.00" type="human" speed="13.28" pos="243.85" lane="e0_0" slope="0.00"/>
    </timestep>
    <timestep time="30.50">
        <vehicle id="background.0" x="250.46" y="-1.60" angle="90.00" type="human" speed="13.23" pos="250.46" lane="e0_0" slope="0.00"/>
    </timestep>
    <timestep time="31.00">
        <vehicle id="background.0" x="257.04" y="-1.60" angle="90.00" type="human" speed="13.16" pos="257.04" lane="e0_0" slope="0.00"/>
    </timestep>
    <timestep time="31.50">
        <vehicle id="background.0" x="263.58" y="-1.60" angle="90.00" type="human" speed="13.09" pos="263.58" lane="e0_0" slope="0.00"/>
    </timestep>
    <timestep time="32.00">
        <vehicle id="background.0" x="270.21" y="-1.60" angle="90.00" type="human" speed="13.24" pos="270.21" lane="e0_0" slope="0.00"/>
    </timestep>
    <timestep time="32.50">
        <vehicle id="background.0" x="276.75" y="-1.60" angle="90.00" type="human" speed="13.09" pos="276.75" lane="e0_0" slope="0.00"/>
    </timestep>
    <timestep time="33.00">
        <vehicle id="background.0" x="283.34" y="-1.60" angle="90.00" type="human" speed="13.17" pos="283.34" lane="e0_0" slope="0.00"/>
    </timestep>
    <timestep time="33.50">
        <vehicle id="background.0" x="289.98" y="-1.60" angle="90.00" type="human" speed="13.29" pos="289.98" lane="e0_0" slope="0.00"/>
    </timestep>
    <timestep time="34.00">
        <vehicle id="background.0" x="296.63" y="-1.60" angle="90.00" type="human" speed="13.30" pos="296.63" lane="e0_0" slope="0.00"/>
    </timestep>
    <timestep time="34.50">
        <vehicle id="background.0" x="303.12" y="-1.60" angle="90.00" type="human" speed="13.16" pos="3.12" lane="e1_0" slope="0.00"/>
    </timestep>
    <timestep time="35.00">
        <vehicle id="background.0" x="309.70" y="-1.60" angle="90.00" type="human" speed="13.16" pos="9.70" lane="e1_0" slope="0.00"/>
        <vehicle id="background.1" x="5.10" y="-1.60" angle="90.00" type="human" speed="13.07" pos="5.10" lane="e0_0" slope="0.00"/>
    </timestep>
    <timestep time="35.50">
        <vehicle id="background.0" x="316.27" y="-1.60" angle="90.00" type="human" speed="13.15" pos="16.27" lane="e1_0" slope="0.00"/>
        <vehicle id="background.1" x="11.54" y="-1.60" angle="90.00" type="human" speed="12.88" pos="11.54" lane="e0_0" slope="0.00"/>
    </timestep>
    <timestep time="36.00">
        <vehicle id="background.0" x="322.96" y="-1.60" angle="90.00" type="human" speed="13.37" pos="22.96" lane="e1_0" slope="0.00"/>
        <vehicle id="background.1" x="17.85" y="-1.60" angle="90.00" type="human" speed="12.61" pos="17.85" lane="e0_0" slope="0.00"/>
    </timestep>
    <timestep time="36.50">
        <vehicle id="background.0" x="329.61" y="-1.60" angle="90.00" type="human" speed="13.30" pos="29.61" lane="e1_0" slope="0.00"/>
        <vehicle id="background.1" x="24.20" y="-1.60" angle="90.00" type="human" speed="12.70" pos="24.20" lane="e0_0" slope="0.00"/>
    </timestep>
    <timestep time="37.00">
        <vehicle id="background.0" x="336.31" y="-1.60" angle="90.00" type="human" speed="13.40" pos="36.31" lane="e1_0" slope="0.00"/>
        <vehicle id="background.1" x="30.65" y="-1.60" angle="90.00" type="human" speed="12.90" pos="30.65" lane="e0_0" slope="0.00"/>
    </timestep>
    <timestep time="37.50">
        <vehicle id="background.0" x="342.89" y="-1.60" angle="90.00" type="human" speed="13.17" pos="42.89" lane="e1_0" slope="0.00"/>
        <vehicle id="background.1" x="37.10" y="-1.60" angle="90.00" type="human" speed="12.89" pos="37.10" lane="e0_0" slope="0.00"/>
    </timestep>
    <timestep time="38.00">
        <vehicle id="background.0" x="349.51" y="-1.60" angle="90.00" type="human" speed="13.24" pos="49.51" lane="e1_0" slope="0.00"/>
        <vehicle id="background.1" x="43.58" y="-1.60" angle="90.00" type="human" speed="12.97" pos="43.58" lane="e0_0" slope="0.00"/>
    </timestep>
    <timestep time="38.50">
        <vehicle id="background.1" x="49.98" y="-1.60" angle="90.00" type="human" speed="12.80" pos="49.98" lane="e0_0" slope="0.00"/>
    </timestep>
    <timestep time="39.00">
        <vehicle id="background.1" x="56.46" y="-1.60" angle="90.00" type="human" speed="12.95" pos="56.46" lane="e0_0" slope="0.00"/>
    </timestep>
    <timestep time="39.50">
        <vehicle id="background.1" x="62.77" y="-1.60" angle="90.00" type="human" speed="12.63" pos="62.77" lane="e0_0" slope="0.00"/>
    </timestep>
    <timestep time="40.00">
        <vehicle id="background.1" x="69.10" y="-1.60" angle="90.00" type="human" speed="12.65" pos="69.10" lane="e0_0" slope="0.00"/>
    </timestep>
    <timestep time="40.50">
        <vehicle id="background.1" x="75.44" y="-1.60" angle="90.00" type="human" speed="12.68" pos="75.44" lane="e0_0" slope="0.00"/>
    </timestep>
    <timestep time="41.00">
        <vehicle id="background.1" x="81.97" y="-1.60" angle="90.00" type="human" speed="13.06" pos="81.97" lane="e0_0" slope="0.00"/>
    </timestep>
    <timestep time="41.50">
        <vehicle id="background.1" x="88.27" y="-1.60" angle="90.00" type="human" speed="12.61" pos="88.27" lane="e0_0" slope="0.00"/>
    </timestep>
    <timestep time="42.00">
        <vehicle id="background.1" x="94.74" y="-1.60" angle="90.00" type="human" speed="12.94" pos="94.74" lane="e0_0" slope="0.00"/>
    </timestep>
    <timestep time="42.50">
        <vehicle id="background.1" x="101.09" y="-1.60" angle="90.00" type="human" speed="12.70" pos="101.09" lane="e0_0" slope="0.00"/>
    </timestep>
    <timestep time="43.00">
        <vehicle id="background.1" x="107.58" y="-1.60" angle="90.00" type="human" speed="12.98" pos="107.58" lane="e0_0" slope="0.00"/>
    </timestep>
    <timestep time="43.50">
        <vehicle id="background.1" x="113.97" y="-1.60" angle="90.00" type="human" speed="12.77" pos="113.97" lane="e0_0" slope="0.00"/>
    </timestep>
    <timestep time="44.00">
        <vehicle id="background.1" x="120.50" y="-1.60" angle="90.00" type="human" speed="13.06" pos="120.50" lane="e0_0" slope="0.00"/>
    </timestep>
    <timestep time="44.50">
        <vehicle id="background.1" x="127.02" y="-1.60" angle="90.00" type="human" speed="13.04" pos="127.02" lane="e0_0" slope="0.00"/>
    </timestep>
    <timestep time="45.00">
        <vehicle id="background.1" x="133.48" y="-1.60" angle="90.00" type="human" speed="12.93" pos="133.48" lane="e0_0" slope="0.00"/>
    </timestep>
    <timestep time="45.50">
        <vehicle id="background.1" x="139.98" y="-1.60" angle="90.00" type="human" speed="13.00" pos="139.98" lane="e0_0" slope="0.00"/>
    </timestep>
    <timestep time="46.00">
        <vehicle id="background.1" x="146.31" y="-1.60" angle="90.00" type="human" speed="12.65" pos="146.31" lane="e0_0" slope="0.00"/>
        <vehicle id="background.2" x="5.10" y="-1.60" angle="90.00" type="human" speed="12.99" pos="5.10" lane="e0_0" slope="0.00"/>
    </timestep>
    <timestep time="46.50">
        <vehicle id="background.1" x="152.83" y="-1.60" angle="90.00" type="human" speed="13.05" pos="152.83" lane="e0_0" slope="0.00"/>
        <vehicle id="background.2" x="11.39" y="-1.60" angle="90.00" type="human" speed="12.58" pos="11.39" lane="e0_0" slope="0.00"/>
    </timestep>
    <timestep time="47.00">
        <vehicle id="background.1" x="159.21" y="-1.60" angle="90.00" type="human" speed="12.75" pos="159.21" lane="e0_0" slope="0.00"/>
        <vehicle id="background.2" x="17.67" y="-1.60" angle="90.00" type="human" speed="12.56" pos="17.67" lane="e0_0" slope="0.00"/>
    </timestep>
    <timestep time="47.50">
        <vehicle id="background.1" x="165.74" y="-1.60" angle="90.00" type="human" speed="13.05" pos="165.74" lane="e0_0" slope="0.00"/>
        <vehicle id="background.2" x="23.91" y="-1.60" angle="90.00" type="human" speed="12.50" pos="23.91" lane="e0_0" slope="0.00"/>
    </timestep>
    <timestep time="48.00">
        <vehicle id="background.1" x="172.25" y="-1.60" angle="90.00" type="human" speed="13.03" pos="172.25" lane="e0_0" slope="0.00"/>
        <vehicle id="background.2" x="30.40" y="-1.60" angle="90.00" type="human" speed="12.97" pos="30.40" lane="e0_0" slope="0.00"/>
    </timestep>
    <timestep time="48.50">
        <vehicle id="background.1" x="178.62" y="-1.60" angle="90.00" type="human" speed="12.73" pos="178.62" lane="e0_0" slope="0.00"/>
        <vehicle id="background.2" x="36.87" y="-1.60" angle="90.00" type="human" speed="12.94" pos="36.87" lane="e0_0" slope="0.00"/>
    </timestep>
    <timestep time="49.00">
        <vehicle id="background.1" x="184.91" y="-1.60" angle="90.00" type="human" speed="12.60" pos="184.91" lane="e0_0" slope="0.00"/>
        <vehicle id="background.2" x="43.36" y="-1.60" angle="90.00" type="human" speed="12.98" pos="43.36" lane="e0_0" slope="0.00"/>
    </timestep>
    <timestep time="49.50">
        <vehicle id="background.1" x="191.32" y="-1.60" angle="90.00" type="human" speed="12.82" pos="191.32" lane="e0_0" slope="0.00"/>
        <vehicle id="background.2" x="49.64" y="-1.60" angle="90.00" type="human" speed="12.55" pos="49.64" lane="e0_0" slope="0.00"/>
    </timestep>
    <timestep time="50.00">
        <vehicle id="background.1" x="197.85" y="-1.60" angle="90.00" type="human" speed="13.06" pos="197.85" lane="e0_0" slope="0.00"/>
        <vehicle id="background.2" x="56.08" y="-1.60" angle="90.00" type="human" speed="12.89" pos="56.08" lane="e0_0" slope="0.00"/>
    </timestep>
    <timestep time="50.50">
        <vehicle id="background.1" x="204.25" y="-1.60" angle="90.00" type="human" speed="12.80" pos="204.25" lane="e0_0" slope="0.00"/>
        <vehicle id="background.2" x="62.47" y="-1.60" angle="90.00" type="human" speed="12.77" pos="62.47" lane="e0_0" slope="0.00"/>
    </timestep>
    <timestep time="51.00">
        <vehicle id="background.1" x="210.75" y="-1.60" angle="90.00" type="human" speed="13.00" pos="210.75" lane="e0_0" slope="0.00"/>
        <vehicle id="background.2" x="68.81" y="-1.60" angle="90.00" type="human" speed="12.69" pos="68.81" lane="e0_0" slope="0.00"/>
    </timestep>
    <timestep time="51.50">
        <vehicle id="background.1" x="217.13" y="-1.60" angle="90.00" type="human" speed="12.76" pos="217.13" lane="e0_0" slope="0.00"/>
        <vehicle id="background.2" x="75.11" y="-1.60" angle="90.00" type="human" speed="12.59" pos="75.11" lane="e0_0" slope="0.00"/>
    </timestep>
    <timestep time="52.00">
        <vehicle id="background.1" x="223.55" y="-1.60" angle="90.00" type="human" speed="12.83" pos="223.55" lane="e0_0" slope="0.00"/>
        <vehicle id="background.2" x="81.37" y="-1.60" angle="90.00" type="human" speed="12.53" pos="81.37" lane="e0_0" slope="0.00"/>
    </timestep>
    <timestep time="52.50">
        <vehicle id="background.1" x="229.84" y="-1.60" angle="90.00" type="human" speed="12.58" pos="229.84" lane="e0_0" slope="0.00"/>
        <vehicle id="background.2" x="87.68" y="-1.60" angle="90.00" type="human" speed="12.62" pos="87.68" lane="e0_0" slope="0.00"/>
    </timestep>
    <timestep time="53.00">
        <vehicle id="background.1" x="236.34" y="-1.60" angle="90.00" type="human" speed="12.99" pos="236.34" lane="e0_0" slope="0.00"/>
        <vehicle id="background.2" x="94.17" y="-1.60" angle="90.00" type="human" speed="12.97" pos="94.17" lane="e0_0" slope="0.00"/>
    </timestep>
    <timestep time="53.50">
        <vehicle id="background.1" x="242.84" y="-1.60" angle="90.00" type="human" speed="13.02" pos="242.84" lane="e0_0" slope="0.00"/>
        <vehicle id="background.2" x="100.46" y="-1.60" angle="90.00" type="human" speed="12.59" pos="100.46" lane="e0_0" slope="0.00"/>
    </timestep>
    <timestep time="54.00">
        <vehicle id="background.1" x="249.30" y="-1.60" angle="90.00" type="human" speed="12.92" pos="249.30" lane="e0_0" slope="0.00"/>
        <vehicle id="background.2" x="106.71" y="-1.60" angle="90.00" type="human" speed="12.50" pos="106.71" lane="e0_0" slope="0.00"/>
    </timestep>
    <timestep time="54.50">
        <vehicle id="background.1" x="255.68" y="-1.60" angle="90.00" type="human" speed="12.75" pos="255.68" lane="e0_0" slope="0.00"/>
        <vehicle id="background.2" x="113.07" y="-1.60" angle="90.00" type="human" speed="12.73" pos="113.07" lane="e0_0" slope="0.00"/>
    </timestep>
    <timestep time="55.00">
        <vehicle id="background.1" x="262.08" y="-1.60" angle="90.00" type="human" speed="12.81" pos="262.08" lane="e0_0" slope="0.00"/>
        <vehicle id="background.2" x="119.33" y="-1.60" angle="90.00" type="human" speed="12.51" pos="119.33" lane="e0_0" slope="0.00"/>
    </timestep>
    <timestep time="55.50">
        <vehicle id="background.1" x="268.37" y="-1.60" angle="90.00" type="human" speed="12.57" pos="268.37" lane="e0_0" slope="0.00"/>
        <vehicle id="background.2" x="125.72" y="-1.60" angle="90.00" type="human" speed="12.78" pos="125.72" lane="e0_0" slope="0.00"/>
    </timestep>
    <timestep time="56.00">
        <vehicle id="background.1" x="274.71" y="-1.60" angle="90.00" type="human" speed="12.69" pos="274.71" lane="e0_0" slope="0.00"/>
        <vehicle id="background.2" x="132.02" y="-1.60" angle="90.00" type="human" speed="12.59" pos="132.02" lane="e0_0" slope="0.00"/>
    </timestep>
    <timestep time="56.50">
        <vehicle id="background.1" x="281.07" y="-1.60" angle="90.00" type="human" speed="12.72" pos="281.07" lane="e0_0" slope="0.00"/>
        <vehicle id="background.2" x="138.38" y="-1.60" angle="90.00" type="human" speed="12.74" pos="138.38" lane="e0_0" slope="0.00"/>
    </timestep>
    <timestep time="57.00">
        <vehicle id="background.1" x="286.65" y="-1.60" angle="90.00" type="human" speed="11.16" pos="286.65" lane="e0_0" slope="0.00"/>
        <vehicle id="background.2" x="144.84" y="-1.60" angle="90.00" type="human" speed="12.91" pos="144.84" lane="e0_0" slope="0.00"/>
        <vehicle id="ego" x="5.10" y="-1.60" angle="90.00" type="ego_glosa_type" speed="0.00" pos="5.10" lane="e0_0" slope="0.00"/>
    </timestep>
    <timestep time="57.50">
        <vehicle id="background.1" x="291.21" y="-1.60" angle="90.00" type="human" speed="9.12" pos="291.21" lane="e0_0" slope="0.00"/>
        <vehicle id="background.2" x="151.10" y="-1.60" angle="90.00" type="human" speed="12.52" pos="151.10" lane="e0_0" slope="0.00"/>
        <vehicle id="ego" x="5.60" y="-1.60" angle="90.00" type="ego_glosa_type" speed="1.00" pos="5.60" lane="e0_0" slope="0.00"/>
    </timestep>
    <timestep time="58.00">
        <vehicle id="background.1" x="294.64" y="-1.60" angle="90.00" type="human" speed="6.87" pos="294.64" lane="e0_0" slope="0.00"/>
        <vehicle id="background.2" x="157.57" y="-1.60" angle="90.00" type="human" speed="12.94" pos="157.57" lane="e0_0" slope="0.00"/>
        <vehicle id="ego" x="6.60" y="-1.60" angle="90.00" type="ego_glosa_type" speed="2.00" pos="6.60" lane="e0_0" slope="0.00"/>
    </timestep>
    <timestep time="58.50">
        <vehicle id="background.1" x="297.08" y="-1.60" angle="90.00" type="human" speed="4.88" pos="297.08" lane="e0_0" slope="0.00"/>
        <vehicle id="background.2" x="163.97" y="-1.60" angle="90.00" type="human" speed="12.81" pos="163.97" lane="e0_0" slope="0.00"/>
        <vehicle id="ego" x="8.10" y="-1.60" angle="90.00" type="ego_glosa_type" speed="3.00" pos="8.10" lane="e0_0" slope="0.00"/>
    </timestep>
    <timestep time="59.00">
        <vehicle id="background.1" x="298.57" y="-1.60" angle="90.00" type="human" speed="2.99" pos="298.57" lane="e0_0" slope="0.00"/>
        <vehicle id="background.2" x="170.38" y="-1.60" angle="90.00" type="human" speed="12.82" pos="170.38" lane="e0_0" slope="0.00"/>
        <vehicle id="ego" x="10.10" y="-1.60" angle="90.00" type="ego_glosa_type" speed="4.00" pos="10.10" lane="e0_0" slope="0.00"/>
    </timestep>
    <timestep time="59.50">
        <vehicle id="background.1" x="298.96" y="-1.60" angle="90.00" type="human" speed="0.78" pos="298.96" lane="e0_0" slope="0.00"/>
        <vehicle id="background.2" x="176.86" y="-1.60" angle="90.00" type="human" speed="12.95" pos="176.86" lane="e0_0" slope="0.00"/>
        <vehicle id="ego" x="12.60" y="-1.60" angle="90.00" type="ego_glosa_type" speed="5.00" pos="12.60" lane="e0_0" slope="0.00"/>
    </timestep>
    <timestep time="60.00">
        <vehicle id="background.1" x="298.99" y="-1.60" angle="90.00" type="human" speed="0.06" pos="298.99" lane="e0_0" slope="0.00"/>
        <vehicle id="background.2" x="183.29" y="-1.60" angle="90.00" type="human" speed="12.85" pos="183.29" lane="e0_0" slope="0.00"/>
        <vehicle id="ego" x="15.60" y="-1.60" angle="90.00" type="ego_glosa_type" speed="6.00" pos="15.60" lane="e0_0" slope="0.00"/>
    </timestep>
    <timestep time="60.50">
        <vehicle id="background.1" x="299.00" y="-1.60" angle="90.00" type="human" speed="0.01" pos="299.00" lane="e0_0" slope="0.00"/>
        <vehicle id="background.2" x="189.56" y="-1.60" angle="90.00" type="human" speed="12.55" pos="189.56" lane="e0_0" slope="0.00"/>
        <vehicle id="ego" x="19.10" y="-1.60" angle="90.00" type="ego_glosa_type" speed="7.00" pos="19.10" lane="e0_0" slope="0.00"/>
    </timestep>
    <timestep time="61.00">
        <vehicle id="background.1" x="299.00" y="-1.60" angle="90.00" type="human" speed="0.00" pos="299.00" lane="e0_0" slope="0.00"/>
        <vehicle id="background.2" x="195.89" y="-1.60" angle="90.00" type="human" speed="12.65" pos="195.89" lane="e0_0" slope="0.00"/>
        <vehicle id="ego" x="23.10" y="-1.60" angle="90.00" type="ego_glosa_type" speed="8.00" pos="23.10" lane="e0_0" slope="0.00"/>
    </timestep>
    <timestep time="61.50">
        <vehicle id="background.1" x="299.00" y="-1.60" angle="90.00" type="human" speed="0.00" pos="299.00" lane="e0_0" slope="0.00"/>
        <vehicle id="background.2" x="202.23" y="-1.60" angle="90.00" type="human" speed="12.69" pos="202.23" lane="e0_0" slope="0.00"/>
        <vehicle id="ego" x="27.60" y="-1.60" angle="90.00" type="ego_glosa_type" speed="9.00" pos="27.60" lane="e0_0" slope="0.00"/>
    </timestep>
    <timestep time="62.00">
        <vehicle id="background.1" x="299.00" y="-1.60" angle="90.00" type="human" speed="0.00" pos="299.00" lane="e0_0" slope="0.00"/>
        <vehicle id="background.2" x="208.68" y="-1.60" angle="90.00" type="human" speed="12.91" pos="208.68" lane="e0_0" slope="0.00"/>
        <vehicle id="ego" x="32.60" y="-1.60" angle="90.00" type="ego_glosa_type" speed="10.00" pos="32.60" lane="e0_0" slope="0.00"/>
    </timestep>
    <timestep time="62.50">
        <vehicle id="background.1" x="299.00" y="-1.60" angle="90.00" type="human" speed="0.00" pos="299.00" lane="e0_0" slope="0.00"/>
        <vehicle id="background.2" x="215.07" y="-1.60" angle="90.00" type="human" speed="12.78" pos="215.07" lane="e0_0" slope="0.00"/>
        <vehicle id="ego" x="38.10" y="-1.60" angle="90.00" type="ego_glosa_type" speed="11.00" pos="38.10" lane="e0_0" slope="0.00"/>
    </timestep>
    <timestep time="63.00">
        <vehicle id="background.1" x="299.00" y="-1.60" angle="90.00" type="human" speed="0.00" pos="299.00" lane="e0_0" slope="0.00"/>
        <vehicle id="background.2" x="221.45" y="-1.60" angle="90.00" type="human" speed="12.75" pos="221.45" lane="e0_0" slope="0.00"/>
        <vehicle id="ego" x="44.10" y="-1.60" angle="90.00" type="ego_glosa_type" speed="12.00" pos="44.10" lane="e0_0" slope="0.00"/>
    </timestep>
    <timestep time="63.50">
        <vehicle id="background.1" x="299.00" y="-1.60" angle="90.00" type="human" speed="0.00" pos="299.00" lane="e0_0" slope="0.00"/>
        <vehicle id="background.2" x="227.83" y="-1.60" angle="90.00" type="human" speed="12.76" pos="227.83" lane="e0_0" slope="0.00"/>
        <vehicle id="ego" x="50.60" y="-1.60" angle="90.00" type="ego_glosa_type" speed="13.00" pos="50.60" lane="e0_0" slope="0.00"/>
    </timestep>
    <timestep time="64.00">
        <vehicle id="background.1" x="299.00" y="-1.60" angle="90.00" type="human" speed="0.00" pos="299.00" lane="e0_0" slope="0.00"/>
        <vehicle id="background.2" x="234.17" y="-1.60" angle="90.00" type="human" speed="12.69" pos="234.17" lane="e0_0" slope="0.00"/>
        <vehicle id="ego" x="57.36" y="-1.60" angle="90.00" type="ego_glosa_type" speed="13.51" pos="57.36" lane="e0_0" slope="0.00"/>
    </timestep>
    <timestep time="64.50">
        <vehicle id="background.1" x="299.00" y="-1.60" angle="90.00" type="human" speed="0.00" pos="299.00" lane="e0_0" slope="0.00"/>
        <vehicle id="background.2" x="240.59" y="-1.60" angle="90.00" type="human" speed="12.84" pos="240.59" lane="e0_0" slope="0.00"/>
        <vehicle id="ego" x="64.11" y="-1.60" angle="90.00" type="ego_glosa_type" speed="13.51" pos="64.11" lane="e0_0" slope="0.00"/>
    </timestep>
    <timestep time="65.00">
        <vehicle id="background.1" x="299.00" y="-1.60" angle="90.00" type="human" speed="0.00" pos="299.00" lane="e0_0" slope="0.00"/>
        <vehicle id="background.2" x="246.90" y="-1.60" angle="90.00" type="human" speed="12.63" pos="246.90" lane="e0_0" slope="0.00"/>
        <vehicle id="ego" x="70.87" y="-1.60" angle="90.00" type="ego_glosa_type" speed="13.51" pos="70.87" lane="e0_0" slope="0.00"/>
    </timestep>
    <timestep time="65.50">
        <vehicle id="background.1" x="299.00" y="-1.60" angle="90.00" type="human" speed="0.00" pos="299.00" lane="e0_0" slope="0.00"/>
        <vehicle id="background.2" x="253.30" y="-1.60" angle="90.00" type="human" speed="12.79" pos="253.30" lane="e0_0" slope="0.00"/>