<?xml version="1.0" encoding="UTF-8"?>

<!-- generated on 2026-05-14 17:06:32 by Eclipse SUMO sumo Version 1.24.0
<sumoConfiguration xmlns:xsi="http://www.w3.org/2001/XMLSchema-instance" xsi:noNamespaceSchemaLocation="http://sumo.dlr.de/xsd/sumoConfiguration.xsd">

    <input>
        <net-file value="scenarios/simple_arterial/simple_arterial.net.xml"/>
        <route-files value="scenarios/simple_arterial/simple_arterial_glosa.rou.xml"/>
        <additional-files value="scenarios/simple_arterial/simple_arterial.tls.xml"/>
    </input>

    <output>
        <fcd-output value="runs/fcd_expert_glosa/episode_00062_seed_104.fcd.xml"/>
    </output>

    <time>
        <begin value="0"/>
        <end value="900"/>
        <step-length value="0.5"/>
    </time>

    <report>
        <no-warnings value="true"/>
    </report>

    <traci_server>
        <remote-port value="37703"/>
    </traci_server>

    <random_number>
        <seed value="104"/>
    </random_number>

</sumoConfiguration>
-->

<fcd-export xmlns:xsi="http://www.w3.org/2001/XMLSchema-instance" xsi:noNamespaceSchemaLocation="http://sumo.dlr.de/xsd/fcd_file.xsd">
    <timestep time="0.00"/>
    <timestep time="0.50"/>
    <timestep time="1.00"/>
    <timestep time="1.50"/>
    <timestep time="2.00"/>
    <timestep time="2.50"/>
    <timestep time="3.00"/>
    <timestep time="3.50"/>
    <timestep time="4.00"/>
    <timestep time="4.50"/>
    <timestep time="5.00"/>
    <timestep time="5.50"/>
    <timestep time="6.00"/>
    <timestep time="6.50"/>
    <timestep time="7.00"/>
    <timestep time="7.50"/>
    <timestep time="8.00"/>
    <timestep time="8.50"/>
    <timestep time="9.00"/>
    <timestep time="9.50"/>
    <timestep time="10.00"/>
    <timestep time="10.50"/>
    <timestep time="11.00">
        <vehicle id="background.0" x="5.10" y="-1.60" angle="90.00" type="human" speed="12.94" pos="5.10" lane="e0_0" slope="0.00"/>
    </timestep>
    <timestep time="11.50">
        <vehicle id="background.0" x="11.55" y="-1.60" angle="90.00" type="human" speed="12.90" pos="11.55" lane="e0_0" slope="0.00"/>
    </timestep>
    <timestep time="12.00">
        <vehicle id="background.0" x="17.94" y="-1.60" angle="90.00" type="human" speed="12.78" pos="17.94" lane="e0_0" slope="0.00"/>
    </timestep>
    <timestep time="12.50">
        <vehicle id="background.0" x="24.33" y="-1.60" angle="90.00" type="human" speed="12.77" pos="24.33" lane="e0_0" slope="0.00"/>
    </timestep>
    <timestep time="13.00">
        <vehicle id="background.0" x="30.58" y="-1.60" angle="90.00" type="human" speed="12.52" pos="30.58" lane="e0_0" slope="0.00"/>
    </timestep>
    <timestep time="13.50">
        <vehicle id="background.0" x="36.84" y="-1.60" angle="90.00" type="human" speed="12.51" pos="36.84" lane="e0_0" slope="0.00"/>
    </timestep>
    <timestep time="14.00">
        <vehicle id="background.0" x="43.15" y="-1.60" angle="90.00" type="human" speed="12.62" pos="43.15" lane="e0_0" slope="0.00"/>
    </timestep>
    <timestep time="14.50">
        <vehicle id="background.0" x="49.59" y="-1.60" angle="90.00" type="human" speed="12.89" pos="49.59" lane="e0_0" slope="0.00"/>
        <vehicle id="background.1" x="5.10" y="-1.60" angle="90.00" type="human" speed="13.89" pos="5.10" lane="e0_0" slope="0.00"/>
    </timestep>
    <timestep time="15.00">
        <vehicle id="background.0" x="55.83" y="-1.60" angle="90.00" type="human" speed="12.48" pos="55.83" lane="e0_0" slope="0.00"/>
        <vehicle id="background.1" x="11.91" y="-1.60" angle="90.00" type="human" speed="13.62" pos="11.91" lane="e0_0" slope="0.00"/>
    </timestep>
    <timestep time="15.50">
        <vehicle id="background.0" x="62.12" y="-1.60" angle="90.00" type="human" speed="12.57" pos="62.12" lane="e0_0" slope="0.00"/>
        <vehicle id="background.1" x="18.84" y="-1.60" angle="90.00" type="human" speed="13.86" pos="18.84" lane="e0_0" slope="0.00"/>
    </timestep>
    <timestep time="16.00">
        <vehicle id="background.0" x="68.50" y="-1.60" angle="90.00" type="human" speed="12.77" pos="68.50" lane="e0_0" slope="0.00"/>
        <vehicle id="background.1" x="25.71" y="-1.60" angle="90.00" type="human" speed="13.74" pos="25.71" lane="e0_0" slope="0.00"/>
    </timestep>
    <timestep time="16.50">
        <vehicle id="background.0" x="74.79" y="-1.60" angle="90.00" type="human" speed="12.57" pos="74.79" lane="e0_0" slope="0.00"/>
        <vehicle id="background.1" x="32.66" y="-1.60" angle="90.00" type="human" speed="13.89" pos="32.66" lane="e0_0" slope="0.00"/>
    </timestep>
    <timestep time="17.00">
        <vehicle id="background.0" x="81.11" y="-1.60" angle="90.00" type="human" speed="12.65" pos="81.11" lane="e0_0" slope="0.00"/>
        <vehicle id="background.1" x="39.49" y="-1.60" angle="90.00" type="human" speed="13.66" pos="39.49" lane="e0_0" slope="0.00"/>
    </timestep>
    <timestep time="17.50">
        <vehicle id="background.0" x="87.48" y="-1.60" angle="90.00" type="human" speed="12.73" pos="87.48" lane="e0_0" slope="0.00"/>
        <vehicle id="background.1" x="46.21" y="-1.60" angle="90.00" type="human" speed="13.45" pos="46.21" lane="e0_0" slope="0.00"/>
    </timestep>
    <timestep time="18.00">
        <vehicle id="background.0" x="93.70" y="-1.60" angle="90.00" type="human" speed="12.45" pos="93.70" lane="e0_0" slope="0.00"/>
        <vehicle id="background.1" x="53.01" y="-1.60" angle="90.00" type="human" speed="13.60" pos="53.01" lane="e0_0" slope="0.00"/>
    </timestep>
    <timestep time="18.50">
        <vehicle id="background.0" x="100.17" y="-1.60" angle="90.00" type="human" speed="12.93" pos="100.17" lane="e0_0" slope="0.00"/>
        <vehicle id="background.1" x="59.90" y="-1.60" angle="90.00" type="human" speed="13.77" pos="59.90" lane="e0_0" slope="0.00"/>
    </timestep>
    <timestep time="19.00">
        <vehicle id="background.0" x="106.40" y="-1.60" angle="90.00" type="human" speed="12.46" pos="106.40" lane="e0_0" slope="0.00"/>
        <vehicle id="background.1" x="66.75" y="-1.60" angle="90.00" type="human" speed="13.72" pos="66.75" lane="e0_0" slope="0.00"/>
    </timestep>
    <timestep time="19.50">
        <vehicle id="background.0" x="112.64" y="-1.60" angle="90.00" type="human" speed="12.48" pos="112.64" lane="e0_0" slope="0.00"/>
        <vehicle id="background.1" x="73.68" y="-1.60" angle="90.00" type="human" speed="13.85" pos="73.68" lane="e0_0" slope="0.00"/>
    </timestep>
    <timestep time="20.00">
        <vehicle id="background.0" x="118.99" y="-1.60" angle="90.00" type="human" speed="12.70" pos="118.99" lane="e0_0" slope="0.00"/>
        <vehicle id="background.1" x="80.49" y="-1.60" angle="90.00" type="human" speed="13.62" pos="80.49" lane="e0_0" slope="0.00"/>
    </timestep>
    <timestep time="20.50">
        <vehicle id="background.0" x="125.23" y="-1.60" angle="90.00" type="human" speed="12.49" pos="125.23" lane="e0_0" slope="0.00"/>
        <vehicle id="background.1" x="87.31" y="-1.60" angle="90.00" type="human" speed="13.63" pos="87.31" lane="e0_0" slope="0.00"/>
    </timestep>
    <timestep time="21.00">
        <vehicle id="background.0" x="131.68" y="-1.60" angle="90.00" type="human" speed="12.90" pos="131.68" lane="e0_0" slope="0.00"/>
        <vehicle id="background.1" x="94.05" y="-1.60" angle="90.00" type="human" speed="13.48" pos="94.05" lane="e0_0" slope="0.00"/>
    </timestep>
    <timestep time="21.50">
        <vehicle id="background.0" x="138.08" y="-1.60" angle="90.00" type="human" speed="12.80" pos="138.08" lane="e0_0" slope="0.00"/>
        <vehicle id="background.1" x="100.82" y="-1.60" angle="90.00" type="human" speed="13.55" pos="100.82" lane="e0_0" slope="0.00"/>
    </timestep>
    <timestep time="22.00">
        <vehicle id="background.0" x="144.40" y="-1.60" angle="90.00" type="human" speed="12.65" pos="144.40" lane="e0_0" slope="0.00"/>
        <vehicle id="background.1" x="107.61" y="-1.60" angle="90.00" type="human" speed="13.57" pos="107.61" lane="e0_0" slope="0.00"/>
    </timestep>
    <timestep time="22.50">
        <vehicle id="background.0" x="150.73" y="-1.60" angle="90.00" type="human" speed="12.66" pos="150.73" lane="e0_0" slope="0.00"/>
        <vehicle id="background.1" x="114.46" y="-1.60" angle="90.00" type="human" speed="13.70" pos="114.46" lane="e0_0" slope="0.00"/>
    </timestep>
    <timestep time="23.00">
        <vehicle id="background.0" x="156.96" y="-1.60" angle="90.00" type="human" speed="12.46" pos="156.96" lane="e0_0" slope="0.00"/>
        <vehicle id="background.1" x="121.27" y="-1.60" angle="90.00" type="human" speed="13.62" pos="121.27" lane="e0_0" slope="0.00"/>
    </timestep>
    <timestep time="23.50">
        <vehicle id="background.0" x="163.38" y="-1.60" angle="90.00" type="human" speed="12.84" pos="163.38" lane="e0_0" slope="0.00"/>
        <vehicle id="background.1" x="128.17" y="-1.60" angle="90.00" type="human" speed="13.80" pos="128.17" lane="e0_0" slope="0.00"/>
    </timestep>
    <timestep time="24.00">
        <vehicle id="background.0" x="169.71" y="-1.60" angle="90.00" type="human" speed="12.66" pos="169.71" lane="e0_0" slope="0.00"/>
        <vehicle id="background.1" x="135.08" y="-1.60" angle="90.00" type="human" speed="13.81" pos="135.08" lane="e0_0" slope="0.00"/>
    </timestep>
    <timestep time="24.50">
        <vehicle id="background.0" x="175.99" y="-1.60" angle="90.00" type="human" speed="12.56" pos="175.99" lane="e0_0" slope="0.00"/>
        <vehicle id="background.1" x="141.99" y="-1.60" angle="90.00" type="human" speed="13.83" pos="141.99" lane="e0_0" slope="0.00"/>
    </timestep>
    <timestep time="25.00">
        <vehicle id="background.0" x="182.31" y="-1.60" angle="90.00" type="human" speed="12.64" pos="182.31" lane="e0_0" slope="0.00"/>
        <vehicle id="background.1" x="148.86" y="-1.60" angle="90.00" type="human" speed="13.73" pos="148.86" lane="e0_0" slope="0.00"/>
    </timestep>
    <timestep time="25.50">
        <vehicle id="background.0" x="188.72" y="-1.60" angle="90.00" type="human" speed="12.81" pos="188.72" lane="e0_0" slope="0.00"/>
        <vehicle id="background.1" x="155.58" y="-1.60" angle="90.00" type="human" speed="13.44" pos="155.58" lane="e0_0" slope="0.00"/>
    </timestep>
    <timestep time="26.00">
        <vehicle id="background.0" x="194.94" y="-1.60" angle="90.00" type="human" speed="12.45" pos="194.94" lane="e0_0" slope="0.00"/>
        <vehicle id="background.1" x="162.39" y="-1.60" angle="90.00" type="human" speed="13.62" pos="162.39" lane="e0_0" slope="0.00"/>
    </timestep>
    <timestep time="26.50">
        <vehicle id="background.0" x="201.23" y="-1.60" angle="90.00" type="human" speed="12.57" pos="201.23" lane="e0_0" slope="0.00"/>
        <vehicle id="background.1" x="169.27" y="-1.60" angle="90.00" type="human" speed="13.77" pos="169.27" lane="e0_0" slope="0.00"/>
    </timestep>
    <timestep time="27.00">
        <vehicle id="background.0" x="207.63" y="-1.60" angle="90.00" type="human" speed="12.81" pos="207.63" lane="e0_0" slope="0.00"/>
        <vehicle id="background.1" x="176.13" y="-1.60" angle="90.00" type="human" speed="13.73" pos="176.13" lane="e0_0" slope="0.00"/>
    </timestep>
    <timestep time="27.50">
        <vehicle id="background.0" x="214.08" y="-1.60" angle="90.00" type="human" speed="12.90" pos="214.08" lane="e0_0" slope="0.00"/>
        <vehicle id="background.1" x="182.93" y="-1.60" angle="90.00" type="human" speed="13.60" pos="182.93" lane="e0_0" slope="0.00"/>
    </timestep>
    <timestep time="28.00">
        <vehicle id="background.0" x="220.44" y="-1.60" angle="90.00" type="human" speed="12.72" pos="220.44" lane="e0_0" slope="0.00"/>
        <vehicle id="background.1" x="189.68" y="-1.60" angle="90.00" type="human" speed="13.49" pos="189.68" lane="e0_0" slope="0.00"/>
    </timestep>
    <timestep time="28.50">
        <vehicle id="background.0" x="226.68" y="-1.60" angle="90.00" type="human" speed="12.48" pos="226.68" lane="e0_0" slope="0.00"/>
        <vehicle id="background.1" x="196.50" y="-1.60" angle="90.00" type="human" speed="13.65" pos="196.50" lane="e0_0" slope="0.00"/>
    </timestep>
    <timestep time="29.00">
        <vehicle id="background.0" x="232.93" y="-1.60" angle="90.00" type="human" speed="12.49" pos="232.93" lane="e0_0" slope="0.00"/>
        <vehicle id="background.1" x="203.30" y="-1.60" angle="90.00" type="human" speed="13.60" pos="203.30" lane="e0_0" slope="0.00"/>
    </timestep>
    <timestep time="29.50">
        <vehicle id="background.0" x="239.34" y="-1.60" angle="90.00" type="human" speed="12.82" pos="239.34" lane="e0_0" slope="0.00"/>
        <vehicle id="background.1" x="210.10" y="-1.60" angle="90.00" type="human" speed="13.59" pos="210.10" lane="e0_0" slope="0.00"/>
    </timestep>
    <timestep time="30.00">
        <vehicle id="background.0" x="245.65" y="-1.60" angle="90.00" type="human" speed="12.62" pos="245.65" lane="e0_0" slope="0.00"/>
        <vehicle id="background.1" x="216.85" y="-1.60" angle="90.00" type="human" speed="13.49" pos="216.85" lane="e0_0" slope="0.00"/>
    </timestep>
    <timestep time="30.50">
        <vehicle id="background.0" x="252.09" y="-1.60" angle="90.00" type="human" speed="12.87" pos="252.09" lane="e0_0" slope="0.00"/>
        <vehicle id="background.1" x="223.60" y="-1.60" angle="90.00" type="human" speed="13.50" pos="223.60" lane="e0_0" slope="0.00"/>
    </timestep>
    <timestep time="31.00">
        <vehicle id="background.0" x="258.37" y="-1.60" angle="90.00" type="human" speed="12.57" pos="258.37" lane="e0_0" slope="0.00"/>
        <vehicle id="background.1" x="230.37" y="-1.60" angle="90.00" type="human" speed="13.56" pos="230.37" lane="e0_0" slope="0.00"/>
    </timestep>
    <timestep time="31.50">
        <vehicle id="background.0" x="264.83" y="-1.60" angle="90.00" type="human" speed="12.92" pos="264.83" lane="e0_0" slope="0.00"/>
        <vehicle id="background.1" x="237.19" y="-1.60" angle="90.00" type="human" speed="13.63" pos="237.19" lane="e0_0" slope="0.00"/>
    </timestep>
    <timestep time="32.00">
        <vehicle id="background.0" x="271.09" y="-1.60" angle="90.00" type="human" speed="12.52" pos="271.09" lane="e0_0" slope="0.00"/>
        <vehicle id="background.1" x="244.00" y="-1.60" angle="90.00" type="human" speed="13.62" pos="244.00" lane="e0_0" slope="0.00"/>
        <vehicle id="background.2" x="5.10" y="-1.60" angle="90.00" type="human" speed="11.70" pos="5.10" lane="e0_0" slope="0.00"/>
    </timestep>
    <timestep time="32.50">
        <vehicle id="background.0" x="277.33" y="-1.60" angle="90.00" type="human" speed="12.47" pos="277.33" lane="e0_0" slope="0.00"/>
        <vehicle id="background.1" x="250.90" y="-1.60" angle="90.00" type="human" speed="13.80" pos="250.90" lane="e0_0" slope="0.00"/>
        <vehicle id="background.2" x="10.83" y="-1.60" angle="90.00" type="human" speed="11.46" pos="10.83" lane="e0_0" slope="0.00"/>
    </timestep>
    <timestep time="33.00">
        <vehicle id="background.0" x="283.63" y="-1.60" angle="90.00" type="human" speed="12.60" pos="283.63" lane="e0_0" slope="0.00"/>
        <vehicle id="background.1" x="257.66" y="-1.60" angle="90.00" type="human" speed="13.52" pos="257.66" lane="e0_0" slope="0.00"/>
        <vehicle id="background.2" x="16.46" y="-1.60" angle="90.00" type="human" speed="11.25" pos="16.46" lane="e0_0" slope="0.00"/>
    </timestep>
    <timestep time="33.50">
        <vehicle id="background.0" x="290.06" y="-1.60" angle="90.00" type="human" speed="12.86" pos="290.06" lane="e0_0" slope="0.00"/>
        <vehicle id="background.1" x="264.47" y="-1.60" angle="90.00" type="human" speed="13.62" pos="264.47" lane="e0_0" slope="0.00"/>
        <vehicle id="background.2" x="22.20" y="-1.60" angle="90.00" type="human" speed="11.48" pos="22.20" lane="e0_0" slope="0.00"/>
    </timestep>
    <timestep time="34.00">
        <vehicle id="background.0" x="296.48" y="-1.60" angle="90.00" type="human" speed="12.85" pos="296.48" lane="e0_0" slope="0.00"/>
        <vehicle id="background.1" x="271.18" y="-1.60" angle="90.00" type="human" speed="13.42" pos="271.18" lane="e0_0" slope="0.00"/>
        <vehicle id="background.2" x="28.03" y="-1.60" angle="90.00" type="human" speed="11.66" pos="28.03" lane="e0_0" slope="0.00"/>
    </timestep>
    <timestep time="34.50">
        <vehicle id="background.0" x="302.82" y="-1.60" angle="90.00" type="human" speed="12.88" pos="2.82" lane="e1_0" slope="0.00"/>
        <vehicle id="background.1" x="277.99" y="-1.60" angle="90.00" type="human" speed="13.60" pos="277.99" lane="e0_0" slope="0.00"/>
        <vehicle id="background.2" x="33.83" y="-1.60" angle="90.00" type="human" speed="11.62" pos="33.83" lane="e0_0" slope="0.00"/>
        <vehicle id="background.3" x="5.10" y="-1.60" angle="90.00" type="human" speed="13.89" pos="5.10" lane="e0_0" slope="0.00"/>
    </timestep>
    <timestep time="35.00">
        <vehicle id="background.0" x="309.29" y="-1.60" angle="90.00" type="human" speed="12.94" pos="9.29" lane="e1_0" slope="0.00"/>
        <vehicle id="background.1" x="284.73" y="-1.60" angle="90.00" type="human" speed="13.48" pos="284.73" lane="e0_0" slope="0.00"/>
        <vehicle id="background.2" x="39.57" y="-1.60" angle="90.00" type="human" speed="11.47" pos="39.57" lane="e0_0" slope="0.00"/>
        <vehicle id="background.3" x="12.01" y="-1.60" angle="90.00" type="human" speed="13.81" pos="12.01" lane="e0_0" slope="0.00"/>
    </timestep>
    <timestep time="35.50">
        <vehicle id="background.0" x="315.59" y="-1.60" angle="90.00" type="human" speed="12.59" pos="15.59" lane="e1_0" slope="0.00"/>
        <vehicle id="background.1" x="291.50" y="-1.60" angle="90.00" type="human" speed="13.55" pos="291.50" lane="e0_0" slope="0.00"/>
        <vehicle id="background.2" x="45.25" y="-1.60" angle="90.00" type="human" speed="11.37" pos="45.25" lane="e0_0" slope="0.00"/>
        <vehicle id="background.3" x="18.81" y="-1.60" angle="90.00" type="human" speed="13.60" pos="18.81" lane="e0_0" slope="0.00"/>
    </timestep>
    <timestep time="36.00">
        <vehicle id="background.0" x="321.82" y="-1.60" angle="90.00" type="human" speed="12.46" pos="21.82" lane="e1_0" slope="0.00"/>
        <vehicle id="background.1" x="298.34" y="-1.60" angle="90.00" type="human" speed="13.68" pos="298.34" lane="e0_0" slope="0.00"/>
        <vehicle id="background.2" x="51.06" y="-1.60" angle="90.00" type="human" speed="11.62" pos="51.06" lane="e0_0" slope="0.00"/>
        <vehicle id="background.3" x="25.34" y="-1.60" angle="90.00" type="human" speed="13.06" pos="25.34" lane="e0_0" slope="0.00"/>
    </timestep>
    <timestep time="36.50">
        <vehicle id="background.0" x="328.17" y="-1.60" angle="90.00" type="human" speed="12.70" pos="28.17" lane="e1_0" slope="0.00"/>
        <vehicle id="background.1" x="304.91" y="-1.60" angle="90.00" type="human" speed="13.34" pos="4.91" lane="e1_0" slope="0.00"/>
        <vehicle id="background.2" x="56.89" y="-1.60" angle="90.00" type="human" speed="11.66" pos="56.89" lane="e0_0" slope="0.00"/>
        <vehicle id="background.3" x="31.94" y="-1.60" angle="90.00" type="human" speed="13.21" pos="31.94" lane="e0_0" slope="0.00"/>
    </timestep>
    <timestep time="37.00">
        <vehicle id="background.0" x="334.53" y="-1.60" angle="90.00" type="human" speed="12.72" pos="34.53" lane="e1_0" slope="0.00"/>
        <vehicle id="background.1" x="311.57" y="-1.60" angle="90.00" type="human" speed="13.32" pos="11.57" lane="e1_0" slope="0.00"/>
        <vehicle id="background.2" x="62.64" y="-1.60" angle="90.00" type="human" speed="11.49" pos="62.64" lane="e0_0" slope="0.00"/>
        <vehicle id="background.3" x="38.46" y="-1.60" angle="90.00" type="human" speed="13.03" pos="38.46" lane="e0_0" slope="0.00"/>
    </timestep>
    <timestep time="37.50">
        <vehicle id="background.0" x="340.85" y="-1.60" angle="90.00" type="human" speed="12.64" pos="40.85" lane="e1_0" slope="0.00"/>
        <vehicle id="background.1" x="318.29" y="-1.60" angle="90.00" type="human" speed="13.44" pos="18.29" lane="e1_0" slope="0.00"/>
        <vehicle id="background.2" x="68.33" y="-1.60" angle="90.00" type="human" speed="11.39" pos="68.33" lane="e0_0" slope="0.00"/>
        <vehicle id="background.3" x="44.82" y="-1.60" angle="90.00" type="human" speed="12.72" pos="44.82" lane="e0_0" slope="0.00"/>
    </timestep>
    <timestep time="38.00">
        <vehicle id="background.0" x="347.11" y="-1.60" angle="90.00" type="human" speed="12.52" pos="47.11" lane="e1_0" slope="0.00"/>
        <vehicle id="background.1" x="324.75" y="-1.60" angle="90.00" type="human" speed="12.92" pos="24.75" lane="e1_0" slope="0.00"/>
        <vehicle id="background.2" x="73.99" y="-1.60" angle="90.00" type="human" speed="11.32" pos="73.99" lane="e0_0" slope="0.00"/>
        <vehicle id="background.3" x="51.01" y="-1.60" angle="90.00" type="human" speed="12.39" pos="51.01" lane="e0_0" slope="0.00"/>
    </timestep>
    <timestep time="38.50">
        <vehicle id="background.1" x="331.09" y="-1.60" angle="90.00" type="human" speed="12.69" pos="31.09" lane="e1_0" slope="0.00"/>
        <vehicle id="background.2" x="79.72" y="-1.60" angle="90.00" type="human" speed="11.47" pos="79.72" lane="e0_0" slope="0.00"/>
        <vehicle id="background.3" x="57.14" y="-1.60" angle="90.00" type="human" speed="12.27" pos="57.14" lane="e0_0" slope="0.00"/>
    </timestep>
    <timestep time="39.00">
        <vehicle id="background.1" x="337.69" y="-1.60" angle="90.00" type="human" speed="13.20" pos="37.69" lane="e1_0" slope="0.00"/>
        <vehicle id="background.2" x="85.51" y="-1.60" angle="90.00" type="human" speed="11.56" pos="85.51" lane="e0_0" slope="0.00"/>
        <vehicle id="background.3" x="63.19" y="-1.60" angle="90.00" type="human" speed="12.10" pos="63.19" lane="e0_0" slope="0.00"/>
    </timestep>
    <timestep time="39.50">
        <vehicle id="background.1" x="344.63" y="-1.60" angle="90.00" type="human" speed="13.88" pos="44.63" lane="e1_0" slope="0.00"/>
        <vehicle id="background.2" x="91.30" y="-1.60" angle="90.00" type="human" speed="11.58" pos="91.30" lane="e0_0" slope="0.00"/>
        <vehicle id="background.3" x="69.30" y="-1.60" angle="90.00" type="human" speed="12.22" pos="69.30" lane="e0_0" slope="0.00"/>
    </timestep>
    <timestep time="40.00">
        <vehicle id="background.2" x="97.12" y="-1.60" angle="90.00" type="human" speed="11.65" pos="97.12" lane="e0_0" slope="0.00"/>
        <vehicle id="background.3" x="75.35" y="-1.60" angle="90.00" type="human" speed="12.10" pos="75.35" lane="e0_0" slope="0.00"/>
    </timestep>
    <timestep time="40.50">
        <vehicle id="background.2" x="102.79" y="-1.60" angle="90.00" type="human" speed="11.33" pos="102.79" lane="e0_0" slope="0.00"/>
        <vehicle id="background.3" x="81.53" y="-1.60" angle="90.00" type="human" speed="12.35" pos="81.53" lane="e0_0" slope="0.00"/>
    </timestep>
    <timestep time="41.00">
        <vehicle id="background.2" x="108.51" y="-1.60" angle="90.00" type="human" speed="11.44" pos="108.51" lane="e0_0" slope="0.00"/>
        <vehicle id="background.3" x="87.52" y="-1.60" angle="90.00" type="human" speed="11.98" pos="87.52" lane="e0_0" slope="0.00"/>
    </timestep>
    <timestep time="41.50">
        <vehicle id="background.2" x="114.16" y="-1.60" angle="90.00" type="human" speed="11.30" pos="114.16" lane="e0_0" slope="0.00"/>
        <vehicle id="background.3" x="93.29" y="-1.60" angle="90.00" type="human" speed="11.54" pos="93.29" lane="e0_0" slope="0.00"/>
    </timestep>
    <timestep time="42.00">
        <vehicle id="background.2" x="119.93" y="-1.60" angle="90.00" type="human" speed="11.55" pos="119.93" lane="e0_0" slope="0.00"/>
        <vehicle id="background.3" x="99.10" y="-1.60" angle="90.00" type="human" speed="11.60" pos="99.10" lane="e0_0" slope="0.00"/>
    </timestep>
    <timestep time="42.50">
        <vehicle id="background.2" x="125.63" y="-1.60" angle="90.00" type="human" speed="11.39" pos="125.63" lane="e0_0" slope="0.00"/>
        <vehicle id="background.3" x="105.07" y="-1.60" angle="90.00" type="human" speed="11.94" pos="105.07" lane="e0_0" slope="0.00"/>
    </timestep>
    <timestep time="43.00">
        <vehicle id="background.2" x="131.23" y="-1.60" angle="90.00" type="human" speed="11.20" pos="131.23" lane="e0_0" slope="0.00"/>
        <vehicle id="background.3" x="110.77" y="-1.60" angle="90.00" type="human" speed="11.40" pos="110.77" lane="e0_0" slope="0.00"/>
    </timestep>
    <timestep time="43.50">
        <vehicle id="background.2" x="136.90" y="-1.60" angle="90.00" type="human" speed="11.33" pos="136.90" lane="e0_0" slope="0.00"/>
        <vehicle id="background.3" x="116.38" y="-1.60" angle="90.00" type="human" speed="11.23" pos="116.38" lane="e0_0" slope="0.00"/>
    </timestep>
    <timestep time="44.00">
        <vehicle id="background.2" x="142.62" y="-1.60" angle="90.00" type="human" speed="11.43" pos="142.62" lane="e0_0" slope="0.00"/>
        <vehicle id="background.3" x="122.09" y="-1.60" angle="90.00" type="human" speed="11.42" pos="122.09" lane="e0_0" slope="0.00"/>
    </timestep>
    <timestep time="44.50">
        <vehicle id="background.2" x="148.36" y="-1.60" angle="90.00" type="human" speed="11.49" pos="148.36" lane="e0_0" slope="0.00"/>
        <vehicle id="background.3" x="127.95" y="-1.60" angle="90.00" type="human" speed="11.72" pos="127.95" lane="e0_0" slope="0.00"/>
    </timestep>
    <timestep time="45.00">
        <vehicle id="background.2" x="154.21" y="-1.60" angle="90.00" type="human" speed="11.69" pos="154.21" lane="e0_0" slope="0.00"/>
        <vehicle id="background.3" x="133.86" y="-1.60" angle="90.00" type="human" speed="11.82" pos="133.86" lane="e0_0" slope="0.00"/>
    </timestep>
    <timestep time="45.50">
        <vehicle id="background.2" x="159.86" y="-1.60" angle="90.00" type="human" speed="11.30" pos="159.86" lane="e0_0" slope="0.00"/>
        <vehicle id="background.3" x="139.87" y="-1.60" angle="90.00" type="human" speed="12.02" pos="139.87" lane="e0_0" slope="0.00"/>
    </timestep>
    <timestep time="46.00">
        <vehicle id="background.2" x="165.68" y="-1.60" angle="90.00" type="human" speed="11.66" pos="165.68" lane="e0_0" slope="0.00"/>
        <vehicle id="background.3" x="145.57" y="-1.60" angle="90.00" type="human" speed="11.40" pos="145.57" lane="e0_0" slope="0.00"/>
    </timestep>
    <timestep time="46.50">
        <vehicle id="background.2" x="171.51" y="-1.60" angle="90.00" type="human" speed="11.65" pos="171.51" lane="e0_0" slope="0.00"/>
        <vehicle id="background.3" x="151.36" y="-1.60" angle="90.00" type="human" speed="11.59" pos="151.36" lane="e0_0" slope="0.00"/>
    </timestep>
    <timestep time="47.00">
        <vehicle id="background.2" x="177.30" y="-1.60" angle="90.00" type="human" speed="11.59" pos="177.30" lane="e0_0" slope="0.00"/>
        <vehicle id="background.3" x="157.25" y="-1.60" angle="90.00" type="human" speed="11.77" pos="157.25" lane="e0_0" slope="0.00"/>
    </timestep>
    <timestep time="47.50">
        <vehicle id="background.2" x="183.06" y="-1.60" angle="90.00" type="human" speed="11.52" pos="183.06" lane="e0_0" slope="0.00"/>
        <vehicle id="background.3" x="162.97" y="-1.60" angle="90.00" type="human" speed="11.46" pos="162.97" lane="e0_0" slope="0.00"/>
    </timestep>
    <timestep time="48.00">
        <vehicle id="background.2" x="188.89" y="-1.60" angle="90.00" type="human" speed="11.65" pos="188.89" lane="e0_0" slope="0.00"/>
        <vehicle id="background.3" x="168.76" y="-1.60" angle="90.00" type="human" speed="11.56" pos="168.76" lane="e0_0" slope="0.00"/>
    </timestep>
    <timestep time="48.50">
        <vehicle id="background.2" x="194.59" y="-1.60" angle="90.00" type="human" speed="11.39" pos="194.59" lane="e0_0" slope="0.00"/>
        <vehicle id="background.3" x="174.64" y="-1.60" angle="90.00" type="human" speed="11.78" pos="174.64" lane="e0_0" slope="0.00"/>
        <vehicle id="background.4" x="5.10" y="-1.60" angle="90.00" type="human" speed="11.65" pos="5.10" lane="e0_0" slope="0.00"/>
    </timestep>
    <timestep time="49.00">
        <vehicle id="background.2" x="200.35" y="-1.60" angle="90.00" type="human" speed="11.53" pos="200.35" lane="e0_0" slope="0.00"/>
        <vehicle id="background.3" x="180.27" y="-1.60" angle="90.00" type="human" speed="11.25" pos="180.27" lane="e0_0" slope="0.00"/>
        <vehicle id="background.4" x="10.68" y="-1.60" angle="90.00" type="human" speed="11.16" pos="10.68" lane="e0_0" slope="0.00"/>
    </timestep>
    <timestep time="49.50">
        <vehicle id="background.2" x="206.01" y="-1.60" angle="90.00" type="human" speed="11.32" pos="206.01" lane="e0_0" slope="0.00"/>
        <vehicle id="background.3" x="186.07" y="-1.60" angle="90.00" type="human" speed="11.61" pos="186.07" lane="e0_0" slope="0.00"/>
        <vehicle id="background.4" x="16.26" y="-1.60" angle="90.00" type="human" speed="11.17" pos="16.26" lane="e0_0" slope="0.00"/>
    </timestep>
    <timestep time="50.00">
        <vehicle id="background.2" x="211.75" y="-1.60" angle="90.00" type="human" speed="11.48" pos="211.75" lane="e0_0" slope="0.00"/>
        <vehicle id="background.3" x="191.75" y="-1.60" angle="90.00" type="human" speed="11.36" pos="191.75" lane="e0_0" slope="0.00"/>
        <vehicle id="background.4" x="22.01" y="-1.60" angle="90.00" type="human" speed="11.49" pos="22.01" lane="e0_0" slope="0.00"/>
    </timestep>
    <timestep time="50.50">
        <vehicle id="background.2" x="217.36" y="-1.60" angle="90.00" type="human" speed="11.21" pos="217.36" lane="e0_0" slope="0.00"/>
        <vehicle id="background.3" x="197.52" y="-1.60" angle="90.00" type="human" speed="11.54" pos="197.52" lane="e0_0" slope="0.00"/>