<?xml version="1.0" encoding="UTF-8"?>

<!-- generated on 2026-05-14 17:06:17 by Eclipse SUMO sumo Version 1.24.0
<sumoConfiguration xmlns:xsi="http://www.w3.org/2001/XMLSchema-instance" xsi:noNamespaceSchemaLocation="http://sumo.dlr.de/xsd/sumoConfiguration.xsd">

    <input>
        <net-file value="scenarios/simple_arterial/simple_arterial.net.xml"/>
        <route-files value="scenarios/simple_arterial/simple_arterial_glosa.rou.xml"/>
        <additional-files value="scenarios/simple_arterial/simple_arterial.tls.xml"/>
    </input>

    <output>
        <fcd-output value="runs/fcd_expert_glosa/episode_00049_seed_91.fcd.xml"/>
    </output>

    <time>
        <begin value="0"/>
        <end value="900"/>
        <step-length value="0.5"/>
    </time>

    <report>
        <no-warnings value="true"/>
    </report>

    <traci_server>
        <remote-port value="37703"/>
    </traci_server>

    <random_number>
        <seed value="91"/>
    </random_number>

</sumoConfiguration>
-->

<fcd-export xmlns:xsi="http://www.w3.org/2001/XMLSchema-instance" xsi:noNamespaceSchemaLocation="http://sumo.dlr.de/xsd/fcd_file.xsd">
    <timestep time="0.00"/>
    <timestep time="0.50"/>
    <timestep time="1.00"/>
    <timestep time="1.50"/>
    <timestep time="2.00"/>
    <timestep time="2.50"/>
    <timestep time="3.00"/>
    <timestep time="3.50"/>
    <timestep time="4.00"/>
    <timestep time="4.50"/>
    <timestep time="5.00"/>
    <timestep time="5.50"/>
    <timestep time="6.00"/>
    <timestep time="6.50"/>
    <timestep time="7.00"/>
    <timestep time="7.50"/>
    <timestep time="8.00"/>
    <timestep time="8.50"/>
    <timestep time="9.00"/>
    <timestep time="9.50"/>
    <timestep time="10.00"/>
    <timestep time="10.50"/>
    <timestep time="11.00"/>
    <timestep time="11.50"/>
    <timestep time="12.00"/>
    <timestep time="12.50"/>
    <timestep time="13.00"/>
    <timestep time="13.50"/>
    <timestep time="14.00"/>
    <timestep time="14.50"/>
    <timestep time="15.00"/>
    <timestep time="15.50"/>
    <timestep time="16.00"/>
    <timestep time="16.50"/>
    <timestep time="17.00"/>
    <timestep time="17.50"/>
    <timestep time="18.00"/>
    <timestep time="18.50"/>
    <timestep time="19.00"/>
    <timestep time="19.50"/>
    <timestep time="20.00">
        <vehicle id="background.0" x="5.10" y="-1.60" angle="90.00" type="human" speed="11.05" pos="5.10" lane="e0_0" slope="0.00"/>
    </timestep>
    <timestep time="20.50">
        <vehicle id="background.0" x="10.40" y="-1.60" angle="90.00" type="human" speed="10.60" pos="10.40" lane="e0_0" slope="0.00"/>
    </timestep>
    <timestep time="21.00">
        <vehicle id="background.0" x="15.70" y="-1.60" angle="90.00" type="human" speed="10.59" pos="15.70" lane="e0_0" slope="0.00"/>
    </timestep>
    <timestep time="21.50">
        <vehicle id="background.0" x="21.02" y="-1.60" angle="90.00" type="human" speed="10.65" pos="21.02" lane="e0_0" slope="0.00"/>
    </timestep>
    <timestep time="22.00">
        <vehicle id="background.0" x="26.49" y="-1.60" angle="90.00" type="human" speed="10.93" pos="26.49" lane="e0_0" slope="0.00"/>
    </timestep>
    <timestep time="22.50">
        <vehicle id="background.0" x="31.90" y="-1.60" angle="90.00" type="human" speed="10.83" pos="31.90" lane="e0_0" slope="0.00"/>
    </timestep>
    <timestep time="23.00">
        <vehicle id="background.0" x="37.22" y="-1.60" angle="90.00" type="human" speed="10.63" pos="37.22" lane="e0_0" slope="0.00"/>
    </timestep>
    <timestep time="23.50">
        <vehicle id="background.0" x="42.62" y="-1.60" angle="90.00" type="human" speed="10.81" pos="42.62" lane="e0_0" slope="0.00"/>
    </timestep>
    <timestep time="24.00">
        <vehicle id="background.0" x="48.15" y="-1.60" angle="90.00" type="human" speed="11.04" pos="48.15" lane="e0_0" slope="0.00"/>
    </timestep>
    <timestep time="24.50">
        <vehicle id="background.0" x="53.67" y="-1.60" angle="90.00" type="human" speed="11.05" pos="53.67" lane="e0_0" slope="0.00"/>
    </timestep>
    <timestep time="25.00">
        <vehicle id="background.0" x="59.17" y="-1.60" angle="90.00" type="human" speed="11.00" pos="59.17" lane="e0_0" slope="0.00"/>
    </timestep>
    <timestep time="25.50">
        <vehicle id="background.0" x="64.48" y="-1.60" angle="90.00" type="human" speed="10.62" pos="64.48" lane="e0_0" slope="0.00"/>
        <vehicle id="ego" x="5.10" y="-1.60" angle="90.00" type="ego_glosa_type" speed="0.00" pos="5.10" lane="e0_0" slope="0.00"/>
    </timestep>
    <timestep time="26.00">
        <vehicle id="background.0" x="69.94" y="-1.60" angle="90.00" type="human" speed="10.92" pos="69.94" lane="e0_0" slope="0.00"/>
        <vehicle id="ego" x="5.60" y="-1.60" angle="90.00" type="ego_glosa_type" speed="1.00" pos="5.60" lane="e0_0" slope="0.00"/>
    </timestep>
    <timestep time="26.50">
        <vehicle id="background.0" x="75.23" y="-1.60" angle="90.00" type="human" speed="10.58" pos="75.23" lane="e0_0" slope="0.00"/>
        <vehicle id="ego" x="6.60" y="-1.60" angle="90.00" type="ego_glosa_type" speed="2.00" pos="6.60" lane="e0_0" slope="0.00"/>
    </timestep>
    <timestep time="27.00">
        <vehicle id="background.0" x="80.75" y="-1.60" angle="90.00" type="human" speed="11.04" pos="80.75" lane="e0_0" slope="0.00"/>
        <vehicle id="ego" x="8.10" y="-1.60" angle="90.00" type="ego_glosa_type" speed="3.00" pos="8.10" lane="e0_0" slope="0.00"/>
    </timestep>
    <timestep time="27.50">
        <vehicle id="background.0" x="86.08" y="-1.60" angle="90.00" type="human" speed="10.67" pos="86.08" lane="e0_0" slope="0.00"/>
        <vehicle id="ego" x="10.10" y="-1.60" angle="90.00" type="ego_glosa_type" speed="4.00" pos="10.10" lane="e0_0" slope="0.00"/>
    </timestep>
    <timestep time="28.00">
        <vehicle id="background.0" x="91.53" y="-1.60" angle="90.00" type="human" speed="10.90" pos="91.53" lane="e0_0" slope="0.00"/>
        <vehicle id="background.1" x="5.10" y="-1.60" angle="90.00" type="human" speed="1.62" pos="5.10" lane="e0_0" slope="0.00"/>
        <vehicle id="ego" x="12.60" y="-1.60" angle="90.00" type="ego_glosa_type" speed="5.00" pos="12.60" lane="e0_0" slope="0.00"/>
    </timestep>
    <timestep time="28.50">
        <vehicle id="background.0" x="96.94" y="-1.60" angle="90.00" type="human" speed="10.82" pos="96.94" lane="e0_0" slope="0.00"/>
        <vehicle id="background.1" x="5.80" y="-1.60" angle="90.00" type="human" speed="1.39" pos="5.80" lane="e0_0" slope="0.00"/>
        <vehicle id="ego" x="15.60" y="-1.60" angle="90.00" type="ego_glosa_type" speed="6.00" pos="15.60" lane="e0_0" slope="0.00"/>
    </timestep>
    <timestep time="29.00">
        <vehicle id="background.0" x="102.40" y="-1.60" angle="90.00" type="human" speed="10.90" pos="102.40" lane="e0_0" slope="0.00"/>
        <vehicle id="background.1" x="6.78" y="-1.60" angle="90.00" type="human" speed="1.97" pos="6.78" lane="e0_0" slope="0.00"/>
        <vehicle id="ego" x="19.10" y="-1.60" angle="90.00" type="ego_glosa_type" speed="7.00" pos="19.10" lane="e0_0" slope="0.00"/>
    </timestep>
    <timestep time="29.50">
        <vehicle id="background.0" x="107.73" y="-1.60" angle="90.00" type="human" speed="10.68" pos="107.73" lane="e0_0" slope="0.00"/>
        <vehicle id="background.1" x="8.21" y="-1.60" angle="90.00" type="human" speed="2.85" pos="8.21" lane="e0_0" slope="0.00"/>
        <vehicle id="ego" x="23.10" y="-1.60" angle="90.00" type="ego_glosa_type" speed="8.00" pos="23.10" lane="e0_0" slope="0.00"/>
    </timestep>
    <timestep time="30.00">
        <vehicle id="background.0" x="113.18" y="-1.60" angle="90.00" type="human" speed="10.90" pos="113.18" lane="e0_0" slope="0.00"/>
        <vehicle id="background.1" x="10.03" y="-1.60" angle="90.00" type="human" speed="3.65" pos="10.03" lane="e0_0" slope="0.00"/>
        <vehicle id="ego" x="27.60" y="-1.60" angle="90.00" type="ego_glosa_type" speed="9.00" pos="27.60" lane="e0_0" slope="0.00"/>
    </timestep>
    <timestep time="30.50">
        <vehicle id="background.0" x="118.63" y="-1.60" angle="90.00" type="human" speed="10.88" pos="118.63" lane="e0_0" slope="0.00"/>
        <vehicle id="background.1" x="12.24" y="-1.60" angle="90.00" type="human" speed="4.42" pos="12.24" lane="e0_0" slope="0.00"/>
        <vehicle id="ego" x="32.60" y="-1.60" angle="90.00" type="ego_glosa_type" speed="10.00" pos="32.60" lane="e0_0" slope="0.00"/>
    </timestep>
    <timestep time="31.00">
        <vehicle id="background.0" x="123.94" y="-1.60" angle="90.00" type="human" speed="10.62" pos="123.94" lane="e0_0" slope="0.00"/>
        <vehicle id="background.1" x="14.77" y="-1.60" angle="90.00" type="human" speed="5.06" pos="14.77" lane="e0_0" slope="0.00"/>
        <vehicle id="ego" x="38.10" y="-1.60" angle="90.00" type="ego_glosa_type" speed="11.00" pos="38.10" lane="e0_0" slope="0.00"/>
    </timestep>
    <timestep time="31.50">
        <vehicle id="background.0" x="129.34" y="-1.60" angle="90.00" type="human" speed="10.80" pos="129.34" lane="e0_0" slope="0.00"/>
        <vehicle id="background.1" x="17.78" y="-1.60" angle="90.00" type="human" speed="6.01" pos="17.78" lane="e0_0" slope="0.00"/>
        <vehicle id="ego" x="43.62" y="-1.60" angle="90.00" type="ego_glosa_type" speed="11.05" pos="43.62" lane="e0_0" slope="0.00"/>
    </timestep>
    <timestep time="32.00">
        <vehicle id="background.0" x="134.64" y="-1.60" angle="90.00" type="human" speed="10.61" pos="134.64" lane="e0_0" slope="0.00"/>
        <vehicle id="background.1" x="21.24" y="-1.60" angle="90.00" type="human" speed="6.92" pos="21.24" lane="e0_0" slope="0.00"/>
        <vehicle id="ego" x="49.15" y="-1.60" angle="90.00" type="ego_glosa_type" speed="11.05" pos="49.15" lane="e0_0" slope="0.00"/>
    </timestep>
    <timestep time="32.50">
        <vehicle id="background.0" x="139.92" y="-1.60" angle="90.00" type="human" speed="10.56" pos="139.92" lane="e0_0" slope="0.00"/>
        <vehicle id="background.1" x="24.99" y="-1.60" angle="90.00" type="human" speed="7.51" pos="24.99" lane="e0_0" slope="0.00"/>
        <vehicle id="ego" x="54.67" y="-1.60" angle="90.00" type="ego_glosa_type" speed="11.05" pos="54.67" lane="e0_0" slope="0.00"/>
    </timestep>
    <timestep time="33.00">
        <vehicle id="background.0" x="145.25" y="-1.60" angle="90.00" type="human" speed="10.66" pos="145.25" lane="e0_0" slope="0.00"/>
        <vehicle id="background.1" x="29.02" y="-1.60" angle="90.00" type="human" speed="8.05" pos="29.02" lane="e0_0" slope="0.00"/>
        <vehicle id="ego" x="60.19" y="-1.60" angle="90.00" type="ego_glosa_type" speed="11.05" pos="60.19" lane="e0_0" slope="0.00"/>
    </timestep>
    <timestep time="33.50">
        <vehicle id="background.0" x="150.53" y="-1.60" angle="90.00" type="human" speed="10.55" pos="150.53" lane="e0_0" slope="0.00"/>
        <vehicle id="background.1" x="33.52" y="-1.60" angle="90.00" type="human" speed="9.00" pos="33.52" lane="e0_0" slope="0.00"/>
        <vehicle id="ego" x="65.72" y="-1.60" angle="90.00" type="ego_glosa_type" speed="11.05" pos="65.72" lane="e0_0" slope="0.00"/>
    </timestep>
    <timestep time="34.00">
        <vehicle id="background.0" x="156.02" y="-1.60" angle="90.00" type="human" speed="10.99" pos="156.02" lane="e0_0" slope="0.00"/>
        <vehicle id="background.1" x="38.42" y="-1.60" angle="90.00" type="human" speed="9.81" pos="38.42" lane="e0_0" slope="0.00"/>
        <vehicle id="ego" x="71.24" y="-1.60" angle="90.00" type="ego_glosa_type" speed="11.05" pos="71.24" lane="e0_0" slope="0.00"/>
    </timestep>
    <timestep time="34.50">
        <vehicle id="background.0" x="161.37" y="-1.60" angle="90.00" type="human" speed="10.70" pos="161.37" lane="e0_0" slope="0.00"/>
        <vehicle id="background.1" x="43.69" y="-1.60" angle="90.00" type="human" speed="10.53" pos="43.69" lane="e0_0" slope="0.00"/>
        <vehicle id="ego" x="76.76" y="-1.60" angle="90.00" type="ego_glosa_type" speed="11.05" pos="76.76" lane="e0_0" slope="0.00"/>
    </timestep>
    <timestep time="35.00">
        <vehicle id="background.0" x="166.89" y="-1.60" angle="90.00" type="human" speed="11.04" pos="166.89" lane="e0_0" slope="0.00"/>
        <vehicle id="background.1" x="49.20" y="-1.60" angle="90.00" type="human" speed="11.02" pos="49.20" lane="e0_0" slope="0.00"/>
        <vehicle id="ego" x="82.29" y="-1.60" angle="90.00" type="ego_glosa_type" speed="11.05" pos="82.29" lane="e0_0" slope="0.00"/>
    </timestep>
    <timestep time="35.50">
        <vehicle id="background.0" x="172.25" y="-1.60" angle="90.00" type="human" speed="10.73" pos="172.25" lane="e0_0" slope="0.00"/>
        <vehicle id="background.1" x="54.83" y="-1.60" angle="90.00" type="human" speed="11.26" pos="54.83" lane="e0_0" slope="0.00"/>
        <vehicle id="ego" x="87.81" y="-1.60" angle="90.00" type="ego_glosa_type" speed="11.05" pos="87.81" lane="e0_0" slope="0.00"/>
    </timestep>
    <timestep time="36.00">
        <vehicle id="background.0" x="177.75" y="-1.60" angle="90.00" type="human" speed="10.99" pos="177.75" lane="e0_0" slope="0.00"/>
        <vehicle id="background.1" x="60.40" y="-1.60" angle="90.00" type="human" speed="11.14" pos="60.40" lane="e0_0" slope="0.00"/>
        <vehicle id="ego" x="93.33" y="-1.60" angle="90.00" type="ego_glosa_type" speed="11.05" pos="93.33" lane="e0_0" slope="0.00"/>
    </timestep>
    <timestep time="36.50">
        <vehicle id="background.0" x="183.17" y="-1.60" angle="90.00" type="human" speed="10.84" pos="183.17" lane="e0_0" slope="0.00"/>
        <vehicle id="background.1" x="66.02" y="-1.60" angle="90.00" type="human" speed="11.23" pos="66.02" lane="e0_0" slope="0.00"/>
        <vehicle id="ego" x="98.86" y="-1.60" angle="90.00" type="ego_glosa_type" speed="11.05" pos="98.86" lane="e0_0" slope="0.00"/>
    </timestep>
    <timestep time="37.00">
        <vehicle id="background.0" x="188.56" y="-1.60" angle="90.00" type="human" speed="10.78" pos="188.56" lane="e0_0" slope="0.00"/>
        <vehicle id="background.1" x="71.60" y="-1.60" angle="90.00" type="human" speed="11.17" pos="71.60" lane="e0_0" slope="0.00"/>
        <vehicle id="ego" x="104.38" y="-1.60" angle="90.00" type="ego_glosa_type" speed="11.05" pos="104.38" lane="e0_0" slope="0.00"/>
    </timestep>
    <timestep time="37.50">
        <vehicle id="background.0" x="194.07" y="-1.60" angle="90.00" type="human" speed="11.02" pos="194.07" lane="e0_0" slope="0.00"/>
        <vehicle id="background.1" x="77.30" y="-1.60" angle="90.00" type="human" speed="11.40" pos="77.30" lane="e0_0" slope="0.00"/>
        <vehicle id="ego" x="109.90" y="-1.60" angle="90.00" type="ego_glosa_type" speed="11.05" pos="109.90" lane="e0_0" slope="0.00"/>
    </timestep>
    <timestep time="38.00">
        <vehicle id="background.0" x="199.58" y="-1.60" angle="90.00" type="human" speed="11.01" pos="199.58" lane="e0_0" slope="0.00"/>
        <vehicle id="background.1" x="82.92" y="-1.60" angle="90.00" type="human" speed="11.25" pos="82.92" lane="e0_0" slope="0.00"/>
        <vehicle id="ego" x="115.43" y="-1.60" angle="90.00" type="ego_glosa_type" speed="11.05" pos="115.43" lane="e0_0" slope="0.00"/>
    </timestep>
    <timestep time="38.50">
        <vehicle id="background.0" x="205.06" y="-1.60" angle="90.00" type="human" speed="10.97" pos="205.06" lane="e0_0" slope="0.00"/>
        <vehicle id="background.1" x="88.58" y="-1.60" angle="90.00" type="human" speed="11.32" pos="88.58" lane="e0_0" slope="0.00"/>
        <vehicle id="ego" x="120.95" y="-1.60" angle="90.00" type="ego_glosa_type" speed="11.05" pos="120.95" lane="e0_0" slope="0.00"/>
    </timestep>
    <timestep time="39.00">
        <vehicle id="background.0" x="210.38" y="-1.60" angle="90.00" type="human" speed="10.63" pos="210.38" lane="e0_0" slope="0.00"/>
        <vehicle id="background.1" x="94.23" y="-1.60" angle="90.00" type="human" speed="11.29" pos="94.23" lane="e0_0" slope="0.00"/>
        <vehicle id="ego" x="126.47" y="-1.60" angle="90.00" type="ego_glosa_type" speed="11.05" pos="126.47" lane="e0_0" slope="0.00"/>
    </timestep>
    <timestep time="39.50">
        <vehicle id="background.0" x="215.67" y="-1.60" angle="90.00" type="human" speed="10.58" pos="215.67" lane="e0_0" slope="0.00"/>
        <vehicle id="background.1" x="99.79" y="-1.60" angle="90.00" type="human" speed="11.11" pos="99.79" lane="e0_0" slope="0.00"/>
        <vehicle id="ego" x="132.00" y="-1.60" angle="90.00" type="ego_glosa_type" speed="11.05" pos="132.00" lane="e0_0" slope="0.00"/>
    </timestep>
    <timestep time="40.00">
        <vehicle id="background.0" x="221.18" y="-1.60" angle="90.00" type="human" speed="11.01" pos="221.18" lane="e0_0" slope="0.00"/>
        <vehicle id="background.1" x="105.45" y="-1.60" angle="90.00" type="human" speed="11.33" pos="105.45" lane="e0_0" slope="0.00"/>
        <vehicle id="ego" x="137.52" y="-1.60" angle="90.00" type="ego_glosa_type" speed="11.05" pos="137.52" lane="e0_0" slope="0.00"/>
    </timestep>
    <timestep time="40.50">
        <vehicle id="background.0" x="226.70" y="-1.60" angle="90.00" type="human" speed="11.03" pos="226.70" lane="e0_0" slope="0.00"/>
        <vehicle id="background.1" x="111.07" y="-1.60" angle="90.00" type="human" speed="11.23" pos="111.07" lane="e0_0" slope="0.00"/>
        <vehicle id="ego" x="143.04" y="-1.60" angle="90.00" type="ego_glosa_type" speed="11.05" pos="143.04" lane="e0_0" slope="0.00"/>
    </timestep>
    <timestep time="41.00">
        <vehicle id="background.0" x="232.10" y="-1.60" angle="90.00" type="human" speed="10.80" pos="232.10" lane="e0_0" slope="0.00"/>
        <vehicle id="background.1" x="116.75" y="-1.60" angle="90.00" type="human" speed="11.37" pos="116.75" lane="e0_0" slope="0.00"/>
        <vehicle id="ego" x="148.57" y="-1.60" angle="90.00" type="ego_glosa_type" speed="11.05" pos="148.57" lane="e0_0" slope="0.00"/>
    </timestep>
    <timestep time="41.50">
        <vehicle id="background.0" x="237.56" y="-1.60" angle="90.00" type="human" speed="10.92" pos="237.56" lane="e0_0" slope="0.00"/>
        <vehicle id="background.1" x="122.36" y="-1.60" angle="90.00" type="human" speed="11.20" pos="122.36" lane="e0_0" slope="0.00"/>
        <vehicle id="ego" x="154.09" y="-1.60" angle="90.00" type="ego_glosa_type" speed="11.05" pos="154.09" lane="e0_0" slope="0.00"/>
    </timestep>
    <timestep time="42.00">
        <vehicle id="background.0" x="243.06" y="-1.60" angle="90.00" type="human" speed="11.00" pos="243.06" lane="e0_0" slope="0.00"/>
        <vehicle id="background.1" x="127.90" y="-1.60" angle="90.00" type="human" speed="11.08" pos="127.90" lane="e0_0" slope="0.00"/>
        <vehicle id="ego" x="159.61" y="-1.60" angle="90.00" type="ego_glosa_type" speed="11.05" pos="159.61" lane="e0_0" slope="0.00"/>
    </timestep>
    <timestep time="42.50">
        <vehicle id="background.0" x="248.51" y="-1.60" angle="90.00" type="human" speed="10.89" pos="248.51" lane="e0_0" slope="0.00"/>
        <vehicle id="background.1" x="133.48" y="-1.60" angle="90.00" type="human" speed="11.17" pos="133.48" lane="e0_0" slope="0.00"/>
        <vehicle id="ego" x="165.14" y="-1.60" angle="90.00" type="ego_glosa_type" speed="11.05" pos="165.14" lane="e0_0" slope="0.00"/>
    </timestep>
    <timestep time="43.00">
        <vehicle id="background.0" x="253.89" y="-1.60" angle="90.00" type="human" speed="10.77" pos="253.89" lane="e0_0" slope="0.00"/>
        <vehicle id="background.1" x="139.17" y="-1.60" angle="90.00" type="human" speed="11.38" pos="139.17" lane="e0_0" slope="0.00"/>
        <vehicle id="ego" x="170.66" y="-1.60" angle="90.00" type="ego_glosa_type" speed="11.05" pos="170.66" lane="e0_0" slope="0.00"/>
    </timestep>
    <timestep time="43.50">
        <vehicle id="background.0" x="259.32" y="-1.60" angle="90.00" type="human" speed="10.85" pos="259.32" lane="e0_0" slope="0.00"/>
        <vehicle id="background.1" x="144.74" y="-1.60" angle="90.00" type="human" speed="11.15" pos="144.74" lane="e0_0" slope="0.00"/>
        <vehicle id="ego" x="176.18" y="-1.60" angle="90.00" type="ego_glosa_type" speed="11.05" pos="176.18" lane="e0_0" slope="0.00"/>
    </timestep>
    <timestep time="44.00">
        <vehicle id="background.0" x="264.84" y="-1.60" angle="90.00" type="human" speed="11.03" pos="264.84" lane="e0_0" slope="0.00"/>
        <vehicle id="background.1" x="150.42" y="-1.60" angle="90.00" type="human" speed="11.35" pos="150.42" lane="e0_0" slope="0.00"/>
        <vehicle id="ego" x="181.71" y="-1.60" angle="90.00" type="ego_glosa_type" speed="11.05" pos="181.71" lane="e0_0" slope="0.00"/>
    </timestep>
    <timestep time="44.50">
        <vehicle id="background.0" x="270.27" y="-1.60" angle="90.00" type="human" speed="10.86" pos="270.27" lane="e0_0" slope="0.00"/>
        <vehicle id="background.1" x="156.11" y="-1.60" angle="90.00" type="human" speed="11.39" pos="156.11" lane="e0_0" slope="0.00"/>
        <vehicle id="ego" x="187.23" y="-1.60" angle="90.00" type="ego_glosa_type" speed="11.05" pos="187.23" lane="e0_0" slope="0.00"/>
    </timestep>
    <timestep time="45.00">
        <vehicle id="background.0" x="275.59" y="-1.60" angle="90.00" type="human" speed="10.64" pos="275.59" lane="e0_0" slope="0.00"/>
        <vehicle id="background.1" x="161.76" y="-1.60" angle="90.00" type="human" speed="11.30" pos="161.76" lane="e0_0" slope="0.00"/>
        <vehicle id="ego" x="192.75" y="-1.60" angle="90.00" type="ego_glosa_type" speed="11.05" pos="192.75" lane="e0_0" slope="0.00"/>
    </timestep>
    <timestep time="45.50">
        <vehicle id="background.0" x="280.99" y="-1.60" angle="90.00" type="human" speed="10.80" pos="280.99" lane="e0_0" slope="0.00"/>
        <vehicle id="background.1" x="167.26" y="-1.60" angle="90.00" type="human" speed="11.00" pos="167.26" lane="e0_0" slope="0.00"/>
        <vehicle id="ego" x="198.28" y="-1.60" angle="90.00" type="ego_glosa_type" speed="11.05" pos="198.28" lane="e0_0" slope="0.00"/>
    </timestep>
    <timestep time="46.00">
        <vehicle id="background.0" x="286.30" y="-1.60" angle="90.00" type="human" speed="10.63" pos="286.30" lane="e0_0" slope="0.00"/>
        <vehicle id="background.1" x="172.85" y="-1.60" angle="90.00" type="human" speed="11.18" pos="172.85" lane="e0_0" slope="0.00"/>
        <vehicle id="ego" x="203.80" y="-1.60" angle="90.00" type="ego_glosa_type" speed="11.05" pos="203.80" lane="e0_0" slope="0.00"/>
    </timestep>
    <timestep time="46.50">
        <vehicle id="background.0" x="291.01" y="-1.60" angle="90.00" type="human" speed="9.41" pos="291.01" lane="e0_0" slope="0.00"/>
        <vehicle id="background.1" x="178.49" y="-1.60" angle="90.00" type="human" speed="11.27" pos="178.49" lane="e0_0" slope="0.00"/>
        <vehicle id="ego" x="209.32" y="-1.60" angle="90.00" type="ego_glosa_type" speed="11.05" pos="209.32" lane="e0_0" slope="0.00"/>
    </timestep>
    <timestep time="47.00">
        <vehicle id="background.0" x="294.59" y="-1.60" angle="90.00" type="human" speed="7.16" pos="294.59" lane="e0_0" slope="0.00"/>
        <vehicle id="background.1" x="184.11" y="-1.60" angle="90.00" type="human" speed="11.25" pos="184.11" lane="e0_0" slope="0.00"/>
        <vehicle id="ego" x="214.85" y="-1.60" angle="90.00" type="ego_glosa_type" speed="11.05" pos="214.85" lane="e0_0" slope="0.00"/>
    </timestep>
    <timestep time="47.50">
        <vehicle id="background.0" x="297.04" y="-1.60" angle="90.00" type="human" speed="4.91" pos="297.04" lane="e0_0" slope="0.00"/>
        <vehicle id="background.1" x="189.68" y="-1.60" angle="90.00" type="human" speed="11.12" pos="189.68" lane="e0_0" slope="0.00"/>
        <vehicle id="ego" x="220.37" y="-1.60" angle="90.00" type="ego_glosa_type" speed="11.05" pos="220.37" lane="e0_0" slope="0.00"/>
    </timestep>
    <timestep time="48.00">
        <vehicle id="background.0" x="298.54" y="-1.60" angle="90.00" type="human" speed="2.99" pos="298.54" lane="e0_0" slope="0.00"/>
        <vehicle id="background.1" x="195.41" y="-1.60" angle="90.00" type="human" speed="11.47" pos="195.41" lane="e0_0" slope="0.00"/>
        <vehicle id="ego" x="225.89" y="-1.60" angle="90.00" type="ego_glosa_type" speed="11.05" pos="225.89" lane="e0_0" slope="0.00"/>
    </timestep>
    <timestep time="48.50">
        <vehicle id="background.0" x="298.94" y="-1.60" angle="90.00" type="human" speed="0.82" pos="298.94" lane="e0_0" slope="0.00"/>
        <vehicle id="background.1" x="201.15" y="-1.60" angle="90.00" type="human" speed="11.48" pos="201.15" lane="e0_0" slope="0.00"/>
        <vehicle id="ego" x="231.42" y="-1.60" angle="90.00" type="ego_glosa_type" speed="11.05" pos="231.42" lane="e0_0" slope="0.00"/>
    </timestep>
    <timestep time="49.00">
        <vehicle id="background.0" x="298.99" y="-1.60" angle="90.00" type="human" speed="0.08" pos="298.99" lane="e0_0" slope="0.00"/>
        <vehicle id="background.1" x="206.88" y="-1.60" angle="90.00" type="human" speed="11.45" pos="206.88" lane="e0_0" slope="0.00"/>
        <vehicle id="ego" x="236.94" y="-1.60" angle="90.00" type="ego_glosa_type" speed="11.05" pos="236.94" lane="e0_0" slope="0.00"/>
    </timestep>
    <timestep time="49.50">
        <vehicle id="background.0" x="299.00" y="-1.60" angle="90.00" type="human" speed="0.02" pos="299.00" lane="e0_0" slope="0.00"/>
        <vehicle id="background.1" x="212.59" y="-1.60" angle="90.00" type="human" speed="11.42" pos="212.59" lane="e0_0" slope="0.00"/>
        <vehicle id="ego" x="242.46" y="-1.60" angle="90.00" type="ego_glosa_type" speed="11.05" pos="242.46" lane="e0_0" slope="0.00"/>
    </timestep>
    <timestep time="50.00">
        <vehicle id="background.0" x="299.00" y="-1.60" angle="90.00" type="human" speed="0.00" pos="299.00" lane="e0_0" slope="0.00"/>
        <vehicle id="background.1" x="218.28" y="-1.60" angle="90.00" type="human" speed="11.38" pos="218.28" lane="e0_0" slope="0.00"/>
        <vehicle id="ego" x="247.99" y="-1.60" angle="90.00" type="ego_glosa_type" speed="11.05" pos="247.99" lane="e0_0" slope="0.00"/>
    </timestep>
    <timestep time="50.50">
        <vehicle id="background.0" x="299.00" y="-1.60" angle="90.00" type="human" speed="0.00" pos="299.00" lane="e0_0" slope="0.00"/>
        <vehicle id="background.1" x="223.99" y="-1.60" angle="90.00" type="human" speed="11.41" pos="223.99" lane="e0_0" slope="0.00"/>
        <vehicle id="ego" x="253.51" y="-1.60" angle="90.00" type="ego_glosa_type" speed="11.05" pos="253.51" lane="e0_0" slope="0.00"/>
    </timestep>
    <timestep time="51.00">
        <vehicle id="background.0" x="299.00" y="-1.60" angle="90.00" type="human" speed="0.00" pos="299.00" lane="e0_0" slope="0.00"/>
        <vehicle id="background.1" x="229.61" y="-1.60" angle="90.00" type="human" speed="11.24" pos="229.61" lane="e0_0" slope="0.00"/>
        <vehicle id="ego" x="259.03" y="-1.60" angle="90.00" type="ego_glosa_type" speed="11.05" pos="259.03" lane="e0_0" slope="0.00"/>
    </timestep>
    <timestep time="51.50">
        <vehicle id="background.0" x="299.00" y="-1.60" angle="90.00" type="human" speed="0.00" pos="299.00" lane="e0_0" slope="0.00"/>
        <vehicle id="background.1" x="235.34" y="-1.60" angle="90.00" type="human" speed="11.47" pos="235.34" lane="e0_0" slope="0.00"/>
        <vehicle id="ego" x="264.56" y="-1.60" angle="90.00" type="ego_glosa_type" speed="11.05" pos="264.56" lane="e0_0" slope="0.00"/>
    </timestep>
    <timestep time="52.00">
        <vehicle id="background.0" x="299.00" y="-1.60" angle="90.00" type="human" speed="0.00" pos="299.00" lane="e0_0" slope="0.00"/>
        <vehicle id="background.1" x="240.84" y="-1.60" angle="90.00" type="human" speed="10.98" pos="240.84" lane="e0_0" slope="0.00"/>
        <vehicle id="ego" x="270.08" y="-1.60" angle="90.00" type="ego_glosa_type" speed="11.05" pos="270.08" lane="e0_0" slope="0.00"/>
    </timestep>
    <timestep time="52.50">
        <vehicle id="background.0" x="299.00" y="-1.60" angle="90.00" type="human" speed="0.00" pos="299.00" lane="e0_0" slope="0.00"/>
        <vehicle id="background.1" x="246.47" y="-1.60" angle="90.00" type="human" speed="11.28" pos="246.47" lane="e0_0" slope="0.00"/>
        <vehicle id="ego" x="275.53" y="-1.60" angle="90.00" type="ego_glosa_type" speed="10.89" pos="275.53" lane="e0_0" slope="0.00"/>
    </timestep>
    <timestep time="53.00">
        <vehicle id="background.0" x="299.00" y="-1.60" angle="90.00" type="human" speed="0.00" pos="299.00" lane="e0_0" slope="0.00"/>
        <vehicle id="background.1" x="252.10" y="-1.60" angle="90.00" type="human" speed="11.25" pos="252.10" lane="e0_0" slope="0.00"/>
        <vehicle id="ego" x="280.06" y="-1.60" angle="90.00" type="ego_glosa_type" speed="9.07" pos="280.06" lane="e0_0" slope="0.00"/>
    </timestep>
    <timestep time="53.50">
        <vehicle id="background.0" x="299.00" y="-1.60" angle="90.00" type="human" speed="0.00" pos="299.00" lane="e0_0" slope="0.00"/>
        <vehicle id="background.1" x="257.79" y="-1.60" angle="90.00" type="human" speed="11.38" pos="257.79" lane="e0_0" slope="0.00"/>
        <vehicle id="ego" x="283.70" y="-1.60" angle="90.00" type="ego_glosa_type" speed="7.27" pos="283.70" lane="e0_0" slope="0.00"/>
    </timestep>
    <timestep time="54.00">
        <vehicle id="background.0" x="299.00" y="-1.60" angle="90.00" type="human" speed="0.00" pos="299.00" lane="e0_0" slope="0.00"/>
        <vehicle id="background.1" x="263.35" y="-1.60" angle="90.00" type="human" speed="11.12" pos="263.35" lane="e0_0" slope="0.00"/>
        <vehicle id="ego" x="286.49" y="-1.60" angle="90.00" type="ego_glosa_type" speed="5.59" pos="286.49" lane="e0_0" slope="0.00"/>
    </timestep>
    <timestep time="54.50">
        <vehicle id="background.0" x="299.00" y="-1.60" angle="90.00" type="human" speed="0.00" pos="299.00" lane="e0_0" slope="0.00"/>