<?xml version="1.0" encoding="UTF-8"?>

<!-- generated on 2026-05-14 17:06:19 by Eclipse SUMO sumo Version 1.24.0
<sumoConfiguration xmlns:xsi="http://www.w3.org/2001/XMLSchema-instance" xsi:noNamespaceSchemaLocation="http://sumo.dlr.de/xsd/sumoConfiguration.xsd">

    <input>
        <net-file value="scenarios/simple_arterial/simple_arterial.net.xml"/>
        <route-files value="scenarios/simple_arterial/simple_arterial_glosa.rou.xml"/>
        <additional-files value="scenarios/simple_arterial/simple_arterial.tls.xml"/>
    </input>

    <output>
        <fcd-output value="runs/fcd_expert_glosa/episode_00051_seed_93.fcd.xml"/>
    </output>

    <time>
        <begin value="0"/>
        <end value="900"/>
        <step-length value="0.5"/>
    </time>

    <report>
        <no-warnings value="true"/>
    </report>

    <traci_server>
        <remote-port value="37703"/>
    </traci_server>

    <random_number>
        <seed value="93"/>
    </random_number>

</sumoConfiguration>
-->

<fcd-export xmlns:xsi="http://www.w3.org/2001/XMLSchema-instance" xsi:noNamespaceSchemaLocation="http://sumo.dlr.de/xsd/fcd_file.xsd">
    <timestep time="0.00"/>
    <timestep time="0.50"/>
    <timestep time="1.00"/>
    <timestep time="1.50"/>
    <timestep time="2.00"/>
    <timestep time="2.50"/>
    <timestep time="3.00"/>
    <timestep time="3.50"/>
    <timestep time="4.00"/>
    <timestep time="4.50"/>
    <timestep time="5.00"/>
    <timestep time="5.50"/>
    <timestep time="6.00"/>
    <timestep time="6.50"/>
    <timestep time="7.00"/>
    <timestep time="7.50"/>
    <timestep time="8.00"/>
    <timestep time="8.50"/>
    <timestep time="9.00"/>
    <timestep time="9.50"/>
    <timestep time="10.00"/>
    <timestep time="10.50"/>
    <timestep time="11.00"/>
    <timestep time="11.50"/>
    <timestep time="12.00"/>
    <timestep time="12.50"/>
    <timestep time="13.00"/>
    <timestep time="13.50"/>
    <timestep time="14.00"/>
    <timestep time="14.50"/>
    <timestep time="15.00"/>
    <timestep time="15.50"/>
    <timestep time="16.00"/>
    <timestep time="16.50"/>
    <timestep time="17.00"/>
    <timestep time="17.50"/>
    <timestep time="18.00"/>
    <timestep time="18.50"/>
    <timestep time="19.00"/>
    <timestep time="19.50"/>
    <timestep time="20.00"/>
    <timestep time="20.50"/>
    <timestep time="21.00"/>
    <timestep time="21.50"/>
    <timestep time="22.00"/>
    <timestep time="22.50"/>
    <timestep time="23.00"/>
    <timestep time="23.50"/>
    <timestep time="24.00"/>
    <timestep time="24.50"/>
    <timestep time="25.00"/>
    <timestep time="25.50"/>
    <timestep time="26.00"/>
    <timestep time="26.50"/>
    <timestep time="27.00"/>
    <timestep time="27.50"/>
    <timestep time="28.00"/>
    <timestep time="28.50"/>
    <timestep time="29.00"/>
    <timestep time="29.50"/>
    <timestep time="30.00"/>
    <timestep time="30.50"/>
    <timestep time="31.00"/>
    <timestep time="31.50"/>
    <timestep time="32.00"/>
    <timestep time="32.50"/>
    <timestep time="33.00"/>
    <timestep time="33.50"/>
    <timestep time="34.00"/>
    <timestep time="34.50"/>
    <timestep time="35.00"/>
    <timestep time="35.50"/>
    <timestep time="36.00"/>
    <timestep time="36.50"/>
    <timestep time="37.00"/>
    <timestep time="37.50"/>
    <timestep time="38.00"/>
    <timestep time="38.50"/>
    <timestep time="39.00"/>
    <timestep time="39.50"/>
    <timestep time="40.00"/>
    <timestep time="40.50"/>
    <timestep time="41.00"/>
    <timestep time="41.50">
        <vehicle id="background.0" x="5.10" y="-1.60" angle="90.00" type="human" speed="13.89" pos="5.10" lane="e0_0" slope="0.00"/>
    </timestep>
    <timestep time="42.00">
        <vehicle id="background.0" x="11.87" y="-1.60" angle="90.00" type="human" speed="13.53" pos="11.87" lane="e0_0" slope="0.00"/>
    </timestep>
    <timestep time="42.50">
        <vehicle id="background.0" x="18.61" y="-1.60" angle="90.00" type="human" speed="13.50" pos="18.61" lane="e0_0" slope="0.00"/>
    </timestep>
    <timestep time="43.00">
        <vehicle id="background.0" x="25.41" y="-1.60" angle="90.00" type="human" speed="13.59" pos="25.41" lane="e0_0" slope="0.00"/>
    </timestep>
    <timestep time="43.50">
        <vehicle id="background.0" x="32.21" y="-1.60" angle="90.00" type="human" speed="13.60" pos="32.21" lane="e0_0" slope="0.00"/>
    </timestep>
    <timestep time="44.00">
        <vehicle id="background.0" x="38.98" y="-1.60" angle="90.00" type="human" speed="13.55" pos="38.98" lane="e0_0" slope="0.00"/>
    </timestep>
    <timestep time="44.50">
        <vehicle id="background.0" x="45.79" y="-1.60" angle="90.00" type="human" speed="13.62" pos="45.79" lane="e0_0" slope="0.00"/>
    </timestep>
    <timestep time="45.00">
        <vehicle id="background.0" x="52.63" y="-1.60" angle="90.00" type="human" speed="13.68" pos="52.63" lane="e0_0" slope="0.00"/>
    </timestep>
    <timestep time="45.50">
        <vehicle id="background.0" x="59.47" y="-1.60" angle="90.00" type="human" speed="13.70" pos="59.47" lane="e0_0" slope="0.00"/>
    </timestep>
    <timestep time="46.00">
        <vehicle id="background.0" x="66.31" y="-1.60" angle="90.00" type="human" speed="13.66" pos="66.31" lane="e0_0" slope="0.00"/>
    </timestep>
    <timestep time="46.50">
        <vehicle id="background.0" x="73.20" y="-1.60" angle="90.00" type="human" speed="13.78" pos="73.20" lane="e0_0" slope="0.00"/>
    </timestep>
    <timestep time="47.00">
        <vehicle id="background.0" x="80.04" y="-1.60" angle="90.00" type="human" speed="13.69" pos="80.04" lane="e0_0" slope="0.00"/>
    </timestep>
    <timestep time="47.50">
        <vehicle id="background.0" x="86.96" y="-1.60" angle="90.00" type="human" speed="13.83" pos="86.96" lane="e0_0" slope="0.00"/>
    </timestep>
    <timestep time="48.00">
        <vehicle id="background.0" x="93.78" y="-1.60" angle="90.00" type="human" speed="13.63" pos="93.78" lane="e0_0" slope="0.00"/>
    </timestep>
    <timestep time="48.50">
        <vehicle id="background.0" x="100.63" y="-1.60" angle="90.00" type="human" speed="13.71" pos="100.63" lane="e0_0" slope="0.00"/>
    </timestep>
    <timestep time="49.00">
        <vehicle id="background.0" x="107.55" y="-1.60" angle="90.00" type="human" speed="13.83" pos="107.55" lane="e0_0" slope="0.00"/>
        <vehicle id="background.1" x="5.10" y="-1.60" angle="90.00" type="human" speed="13.89" pos="5.10" lane="e0_0" slope="0.00"/>
    </timestep>
    <timestep time="49.50">
        <vehicle id="background.0" x="114.30" y="-1.60" angle="90.00" type="human" speed="13.51" pos="114.30" lane="e0_0" slope="0.00"/>
        <vehicle id="background.1" x="11.80" y="-1.60" angle="90.00" type="human" speed="13.40" pos="11.80" lane="e0_0" slope="0.00"/>
    </timestep>
    <timestep time="50.00">
        <vehicle id="background.0" x="121.13" y="-1.60" angle="90.00" type="human" speed="13.66" pos="121.13" lane="e0_0" slope="0.00"/>
        <vehicle id="background.1" x="18.62" y="-1.60" angle="90.00" type="human" speed="13.64" pos="18.62" lane="e0_0" slope="0.00"/>
    </timestep>
    <timestep time="50.50">
        <vehicle id="background.0" x="127.87" y="-1.60" angle="90.00" type="human" speed="13.48" pos="127.87" lane="e0_0" slope="0.00"/>
        <vehicle id="background.1" x="25.33" y="-1.60" angle="90.00" type="human" speed="13.41" pos="25.33" lane="e0_0" slope="0.00"/>
    </timestep>
    <timestep time="51.00">
        <vehicle id="background.0" x="134.59" y="-1.60" angle="90.00" type="human" speed="13.45" pos="134.59" lane="e0_0" slope="0.00"/>
        <vehicle id="background.1" x="32.20" y="-1.60" angle="90.00" type="human" speed="13.74" pos="32.20" lane="e0_0" slope="0.00"/>
    </timestep>
    <timestep time="51.50">
        <vehicle id="background.0" x="141.35" y="-1.60" angle="90.00" type="human" speed="13.51" pos="141.35" lane="e0_0" slope="0.00"/>
        <vehicle id="background.1" x="38.95" y="-1.60" angle="90.00" type="human" speed="13.50" pos="38.95" lane="e0_0" slope="0.00"/>
    </timestep>
    <timestep time="52.00">
        <vehicle id="background.0" x="148.19" y="-1.60" angle="90.00" type="human" speed="13.69" pos="148.19" lane="e0_0" slope="0.00"/>
        <vehicle id="background.1" x="45.82" y="-1.60" angle="90.00" type="human" speed="13.73" pos="45.82" lane="e0_0" slope="0.00"/>
    </timestep>
    <timestep time="52.50">
        <vehicle id="background.0" x="155.04" y="-1.60" angle="90.00" type="human" speed="13.69" pos="155.04" lane="e0_0" slope="0.00"/>
        <vehicle id="background.1" x="52.69" y="-1.60" angle="90.00" type="human" speed="13.74" pos="52.69" lane="e0_0" slope="0.00"/>
    </timestep>
    <timestep time="53.00">
        <vehicle id="background.0" x="161.92" y="-1.60" angle="90.00" type="human" speed="13.77" pos="161.92" lane="e0_0" slope="0.00"/>
        <vehicle id="background.1" x="59.44" y="-1.60" angle="90.00" type="human" speed="13.50" pos="59.44" lane="e0_0" slope="0.00"/>
    </timestep>
    <timestep time="53.50">
        <vehicle id="background.0" x="168.84" y="-1.60" angle="90.00" type="human" speed="13.84" pos="168.84" lane="e0_0" slope="0.00"/>
        <vehicle id="background.1" x="66.30" y="-1.60" angle="90.00" type="human" speed="13.72" pos="66.30" lane="e0_0" slope="0.00"/>
    </timestep>
    <timestep time="54.00">
        <vehicle id="background.0" x="175.68" y="-1.60" angle="90.00" type="human" speed="13.68" pos="175.68" lane="e0_0" slope="0.00"/>
        <vehicle id="background.1" x="73.00" y="-1.60" angle="90.00" type="human" speed="13.40" pos="73.00" lane="e0_0" slope="0.00"/>
    </timestep>
    <timestep time="54.50">
        <vehicle id="background.0" x="182.61" y="-1.60" angle="90.00" type="human" speed="13.86" pos="182.61" lane="e0_0" slope="0.00"/>
        <vehicle id="background.1" x="79.94" y="-1.60" angle="90.00" type="human" speed="13.88" pos="79.94" lane="e0_0" slope="0.00"/>
    </timestep>
    <timestep time="55.00">
        <vehicle id="background.0" x="189.34" y="-1.60" angle="90.00" type="human" speed="13.44" pos="189.34" lane="e0_0" slope="0.00"/>
        <vehicle id="background.1" x="86.75" y="-1.60" angle="90.00" type="human" speed="13.63" pos="86.75" lane="e0_0" slope="0.00"/>
    </timestep>
    <timestep time="55.50">
        <vehicle id="background.0" x="196.22" y="-1.60" angle="90.00" type="human" speed="13.78" pos="196.22" lane="e0_0" slope="0.00"/>
        <vehicle id="background.1" x="93.52" y="-1.60" angle="90.00" type="human" speed="13.54" pos="93.52" lane="e0_0" slope="0.00"/>
    </timestep>
    <timestep time="56.00">
        <vehicle id="background.0" x="202.97" y="-1.60" angle="90.00" type="human" speed="13.49" pos="202.97" lane="e0_0" slope="0.00"/>
        <vehicle id="background.1" x="100.39" y="-1.60" angle="90.00" type="human" speed="13.74" pos="100.39" lane="e0_0" slope="0.00"/>
    </timestep>
    <timestep time="56.50">
        <vehicle id="background.0" x="209.85" y="-1.60" angle="90.00" type="human" speed="13.77" pos="209.85" lane="e0_0" slope="0.00"/>
        <vehicle id="background.1" x="107.32" y="-1.60" angle="90.00" type="human" speed="13.86" pos="107.32" lane="e0_0" slope="0.00"/>
    </timestep>
    <timestep time="57.00">
        <vehicle id="background.0" x="216.55" y="-1.60" angle="90.00" type="human" speed="13.39" pos="216.55" lane="e0_0" slope="0.00"/>
        <vehicle id="background.1" x="114.11" y="-1.60" angle="90.00" type="human" speed="13.58" pos="114.11" lane="e0_0" slope="0.00"/>
    </timestep>
    <timestep time="57.50">
        <vehicle id="background.0" x="223.29" y="-1.60" angle="90.00" type="human" speed="13.48" pos="223.29" lane="e0_0" slope="0.00"/>
        <vehicle id="background.1" x="120.92" y="-1.60" angle="90.00" type="human" speed="13.63" pos="120.92" lane="e0_0" slope="0.00"/>
        <vehicle id="background.2" x="5.10" y="-1.60" angle="90.00" type="human" speed="12.90" pos="5.10" lane="e0_0" slope="0.00"/>
    </timestep>
    <timestep time="58.00">
        <vehicle id="background.0" x="230.12" y="-1.60" angle="90.00" type="human" speed="13.66" pos="230.12" lane="e0_0" slope="0.00"/>
        <vehicle id="background.1" x="127.86" y="-1.60" angle="90.00" type="human" speed="13.88" pos="127.86" lane="e0_0" slope="0.00"/>
        <vehicle id="background.2" x="11.35" y="-1.60" angle="90.00" type="human" speed="12.50" pos="11.35" lane="e0_0" slope="0.00"/>
    </timestep>
    <timestep time="58.50">
        <vehicle id="background.0" x="237.03" y="-1.60" angle="90.00" type="human" speed="13.82" pos="237.03" lane="e0_0" slope="0.00"/>
        <vehicle id="background.1" x="134.77" y="-1.60" angle="90.00" type="human" speed="13.82" pos="134.77" lane="e0_0" slope="0.00"/>
        <vehicle id="background.2" x="17.64" y="-1.60" angle="90.00" type="human" speed="12.58" pos="17.64" lane="e0_0" slope="0.00"/>
    </timestep>
    <timestep time="59.00">
        <vehicle id="background.0" x="243.76" y="-1.60" angle="90.00" type="human" speed="13.46" pos="243.76" lane="e0_0" slope="0.00"/>
        <vehicle id="background.1" x="141.51" y="-1.60" angle="90.00" type="human" speed="13.47" pos="141.51" lane="e0_0" slope="0.00"/>
        <vehicle id="background.2" x="23.95" y="-1.60" angle="90.00" type="human" speed="12.62" pos="23.95" lane="e0_0" slope="0.00"/>
    </timestep>
    <timestep time="59.50">
        <vehicle id="background.0" x="250.60" y="-1.60" angle="90.00" type="human" speed="13.69" pos="250.60" lane="e0_0" slope="0.00"/>
        <vehicle id="background.1" x="148.35" y="-1.60" angle="90.00" type="human" speed="13.69" pos="148.35" lane="e0_0" slope="0.00"/>
        <vehicle id="background.2" x="30.21" y="-1.60" angle="90.00" type="human" speed="12.53" pos="30.21" lane="e0_0" slope="0.00"/>
    </timestep>
    <timestep time="60.00">
        <vehicle id="background.0" x="257.40" y="-1.60" angle="90.00" type="human" speed="13.60" pos="257.40" lane="e0_0" slope="0.00"/>
        <vehicle id="background.1" x="155.25" y="-1.60" angle="90.00" type="human" speed="13.79" pos="155.25" lane="e0_0" slope="0.00"/>
        <vehicle id="background.2" x="36.57" y="-1.60" angle="90.00" type="human" speed="12.71" pos="36.57" lane="e0_0" slope="0.00"/>
        <vehicle id="background.3" x="5.10" y="-1.60" angle="90.00" type="human" speed="13.89" pos="5.10" lane="e0_0" slope="0.00"/>
    </timestep>
    <timestep time="60.50">
        <vehicle id="background.0" x="264.34" y="-1.60" angle="90.00" type="human" speed="13.88" pos="264.34" lane="e0_0" slope="0.00"/>
        <vehicle id="background.1" x="162.10" y="-1.60" angle="90.00" type="human" speed="13.70" pos="162.10" lane="e0_0" slope="0.00"/>
        <vehicle id="background.2" x="42.98" y="-1.60" angle="90.00" type="human" speed="12.83" pos="42.98" lane="e0_0" slope="0.00"/>
        <vehicle id="background.3" x="11.96" y="-1.60" angle="90.00" type="human" speed="13.72" pos="11.96" lane="e0_0" slope="0.00"/>
    </timestep>
    <timestep time="61.00">
        <vehicle id="background.0" x="271.16" y="-1.60" angle="90.00" type="human" speed="13.65" pos="271.16" lane="e0_0" slope="0.00"/>
        <vehicle id="background.1" x="169.00" y="-1.60" angle="90.00" type="human" speed="13.81" pos="169.00" lane="e0_0" slope="0.00"/>
        <vehicle id="background.2" x="49.38" y="-1.60" angle="90.00" type="human" speed="12.80" pos="49.38" lane="e0_0" slope="0.00"/>
        <vehicle id="background.3" x="18.68" y="-1.60" angle="90.00" type="human" speed="13.45" pos="18.68" lane="e0_0" slope="0.00"/>
    </timestep>
    <timestep time="61.50">
        <vehicle id="background.0" x="278.04" y="-1.60" angle="90.00" type="human" speed="13.76" pos="278.04" lane="e0_0" slope="0.00"/>
        <vehicle id="background.1" x="175.83" y="-1.60" angle="90.00" type="human" speed="13.66" pos="175.83" lane="e0_0" slope="0.00"/>
        <vehicle id="background.2" x="55.83" y="-1.60" angle="90.00" type="human" speed="12.89" pos="55.83" lane="e0_0" slope="0.00"/>
        <vehicle id="background.3" x="25.57" y="-1.60" angle="90.00" type="human" speed="13.77" pos="25.57" lane="e0_0" slope="0.00"/>
    </timestep>
    <timestep time="62.00">
        <vehicle id="background.0" x="284.29" y="-1.60" angle="90.00" type="human" speed="12.49" pos="284.29" lane="e0_0" slope="0.00"/>
        <vehicle id="background.1" x="182.77" y="-1.60" angle="90.00" type="human" speed="13.87" pos="182.77" lane="e0_0" slope="0.00"/>
        <vehicle id="background.2" x="62.06" y="-1.60" angle="90.00" type="human" speed="12.46" pos="62.06" lane="e0_0" slope="0.00"/>
        <vehicle id="background.3" x="32.26" y="-1.60" angle="90.00" type="human" speed="13.39" pos="32.26" lane="e0_0" slope="0.00"/>
    </timestep>
    <timestep time="62.50">
        <vehicle id="background.0" x="289.41" y="-1.60" angle="90.00" type="human" speed="10.25" pos="289.41" lane="e0_0" slope="0.00"/>
        <vehicle id="background.1" x="189.54" y="-1.60" angle="90.00" type="human" speed="13.55" pos="189.54" lane="e0_0" slope="0.00"/>
        <vehicle id="background.2" x="68.27" y="-1.60" angle="90.00" type="human" speed="12.43" pos="68.27" lane="e0_0" slope="0.00"/>
        <vehicle id="background.3" x="39.17" y="-1.60" angle="90.00" type="human" speed="13.81" pos="39.17" lane="e0_0" slope="0.00"/>
    </timestep>
    <timestep time="63.00">
        <vehicle id="background.0" x="293.41" y="-1.60" angle="90.00" type="human" speed="8.00" pos="293.41" lane="e0_0" slope="0.00"/>
        <vehicle id="background.1" x="196.33" y="-1.60" angle="90.00" type="human" speed="13.58" pos="196.33" lane="e0_0" slope="0.00"/>
        <vehicle id="background.2" x="74.65" y="-1.60" angle="90.00" type="human" speed="12.75" pos="74.65" lane="e0_0" slope="0.00"/>
        <vehicle id="background.3" x="45.97" y="-1.60" angle="90.00" type="human" speed="13.60" pos="45.97" lane="e0_0" slope="0.00"/>
    </timestep>
    <timestep time="63.50">
        <vehicle id="background.0" x="296.29" y="-1.60" angle="90.00" type="human" speed="5.75" pos="296.29" lane="e0_0" slope="0.00"/>
        <vehicle id="background.1" x="203.22" y="-1.60" angle="90.00" type="human" speed="13.79" pos="203.22" lane="e0_0" slope="0.00"/>
        <vehicle id="background.2" x="80.93" y="-1.60" angle="90.00" type="human" speed="12.55" pos="80.93" lane="e0_0" slope="0.00"/>
        <vehicle id="background.3" x="52.84" y="-1.60" angle="90.00" type="human" speed="13.74" pos="52.84" lane="e0_0" slope="0.00"/>
    </timestep>
    <timestep time="64.00">
        <vehicle id="background.0" x="298.07" y="-1.60" angle="90.00" type="human" speed="3.56" pos="298.07" lane="e0_0" slope="0.00"/>
        <vehicle id="background.1" x="210.11" y="-1.60" angle="90.00" type="human" speed="13.78" pos="210.11" lane="e0_0" slope="0.00"/>
        <vehicle id="background.2" x="87.15" y="-1.60" angle="90.00" type="human" speed="12.45" pos="87.15" lane="e0_0" slope="0.00"/>
        <vehicle id="background.3" x="59.66" y="-1.60" angle="90.00" type="human" speed="13.65" pos="59.66" lane="e0_0" slope="0.00"/>
    </timestep>
    <timestep time="64.50">
        <vehicle id="background.0" x="298.85" y="-1.60" angle="90.00" type="human" speed="1.57" pos="298.85" lane="e0_0" slope="0.00"/>
        <vehicle id="background.1" x="216.97" y="-1.60" angle="90.00" type="human" speed="13.72" pos="216.97" lane="e0_0" slope="0.00"/>
        <vehicle id="background.2" x="93.36" y="-1.60" angle="90.00" type="human" speed="12.43" pos="93.36" lane="e0_0" slope="0.00"/>
        <vehicle id="background.3" x="66.37" y="-1.60" angle="90.00" type="human" speed="13.42" pos="66.37" lane="e0_0" slope="0.00"/>
    </timestep>
    <timestep time="65.00">
        <vehicle id="background.0" x="298.96" y="-1.60" angle="90.00" type="human" speed="0.22" pos="298.96" lane="e0_0" slope="0.00"/>
        <vehicle id="background.1" x="223.69" y="-1.60" angle="90.00" type="human" speed="13.43" pos="223.69" lane="e0_0" slope="0.00"/>
        <vehicle id="background.2" x="99.66" y="-1.60" angle="90.00" type="human" speed="12.58" pos="99.66" lane="e0_0" slope="0.00"/>
        <vehicle id="background.3" x="73.18" y="-1.60" angle="90.00" type="human" speed="13.62" pos="73.18" lane="e0_0" slope="0.00"/>
    </timestep>
    <timestep time="65.50">
        <vehicle id="background.0" x="298.99" y="-1.60" angle="90.00" type="human" speed="0.06" pos="298.99" lane="e0_0" slope="0.00"/>
        <vehicle id="background.1" x="230.57" y="-1.60" angle="90.00" type="human" speed="13.78" pos="230.57" lane="e0_0" slope="0.00"/>
        <vehicle id="background.2" x="106.05" y="-1.60" angle="90.00" type="human" speed="12.80" pos="106.05" lane="e0_0" slope="0.00"/>
        <vehicle id="background.3" x="79.97" y="-1.60" angle="90.00" type="human" speed="13.58" pos="79.97" lane="e0_0" slope="0.00"/>
    </timestep>
    <timestep time="66.00">
        <vehicle id="background.0" x="299.00" y="-1.60" angle="90.00" type="human" speed="0.01" pos="299.00" lane="e0_0" slope="0.00"/>
        <vehicle id="background.1" x="237.32" y="-1.60" angle="90.00" type="human" speed="13.49" pos="237.32" lane="e0_0" slope="0.00"/>
        <vehicle id="background.2" x="112.38" y="-1.60" angle="90.00" type="human" speed="12.66" pos="112.38" lane="e0_0" slope="0.00"/>
        <vehicle id="background.3" x="86.70" y="-1.60" angle="90.00" type="human" speed="13.47" pos="86.70" lane="e0_0" slope="0.00"/>
    </timestep>
    <timestep time="66.50">
        <vehicle id="background.0" x="299.00" y="-1.60" angle="90.00" type="human" speed="0.00" pos="299.00" lane="e0_0" slope="0.00"/>
        <vehicle id="background.1" x="244.02" y="-1.60" angle="90.00" type="human" speed="13.39" pos="244.02" lane="e0_0" slope="0.00"/>
        <vehicle id="background.2" x="118.68" y="-1.60" angle="90.00" type="human" speed="12.58" pos="118.68" lane="e0_0" slope="0.00"/>
        <vehicle id="background.3" x="93.54" y="-1.60" angle="90.00" type="human" speed="13.67" pos="93.54" lane="e0_0" slope="0.00"/>
    </timestep>
    <timestep time="67.00">
        <vehicle id="background.0" x="299.00" y="-1.60" angle="90.00" type="human" speed="0.00" pos="299.00" lane="e0_0" slope="0.00"/>
        <vehicle id="background.1" x="250.95" y="-1.60" angle="90.00" type="human" speed="13.86" pos="250.95" lane="e0_0" slope="0.00"/>
        <vehicle id="background.2" x="125.11" y="-1.60" angle="90.00" type="human" speed="12.87" pos="125.11" lane="e0_0" slope="0.00"/>
        <vehicle id="background.3" x="100.27" y="-1.60" angle="90.00" type="human" speed="13.47" pos="100.27" lane="e0_0" slope="0.00"/>
    </timestep>
    <timestep time="67.50">
        <vehicle id="background.0" x="299.00" y="-1.60" angle="90.00" type="human" speed="0.00" pos="299.00" lane="e0_0" slope="0.00"/>
        <vehicle id="background.1" x="257.85" y="-1.60" angle="90.00" type="human" speed="13.82" pos="257.85" lane="e0_0" slope="0.00"/>
        <vehicle id="background.2" x="131.39" y="-1.60" angle="90.00" type="human" speed="12.55" pos="131.39" lane="e0_0" slope="0.00"/>
        <vehicle id="background.3" x="107.17" y="-1.60" angle="90.00" type="human" speed="13.80" pos="107.17" lane="e0_0" slope="0.00"/>
    </timestep>
    <timestep time="68.00">
        <vehicle id="background.0" x="299.00" y="-1.60" angle="90.00" type="human" speed="0.00" pos="299.00" lane="e0_0" slope="0.00"/>
        <vehicle id="background.1" x="264.64" y="-1.60" angle="90.00" type="human" speed="13.58" pos="264.64" lane="e0_0" slope="0.00"/>
        <vehicle id="background.2" x="137.68" y="-1.60" angle="90.00" type="human" speed="12.58" pos="137.68" lane="e0_0" slope="0.00"/>
        <vehicle id="background.3" x="114.02" y="-1.60" angle="90.00" type="human" speed="13.70" pos="114.02" lane="e0_0" slope="0.00"/>
    </timestep>
    <timestep time="68.50">
        <vehicle id="background.0" x="299.00" y="-1.60" angle="90.00" type="human" speed="0.00" pos="299.00" lane="e0_0" slope="0.00"/>
        <vehicle id="background.1" x="270.88" y="-1.60" angle="90.00" type="human" speed="12.47" pos="270.88" lane="e0_0" slope="0.00"/>
        <vehicle id="background.2" x="143.98" y="-1.60" angle="90.00" type="human" speed="12.61" pos="143.98" lane="e0_0" slope="0.00"/>
        <vehicle id="background.3" x="120.76" y="-1.60" angle="90.00" type="human" speed="13.49" pos="120.76" lane="e0_0" slope="0.00"/>
    </timestep>
    <timestep time="69.00">
        <vehicle id="background.0" x="299.00" y="-1.60" angle="90.00" type="human" speed="0.00" pos="299.00" lane="e0_0" slope="0.00"/>
        <vehicle id="background.1" x="276.00" y="-1.60" angle="90.00" type="human" speed="10.25" pos="276.00" lane="e0_0" slope="0.00"/>
        <vehicle id="background.2" x="150.38" y="-1.60" angle="90.00" type="human" speed="12.79" pos="150.38" lane="e0_0" slope="0.00"/>
        <vehicle id="background.3" x="127.34" y="-1.60" angle="90.00" type="human" speed="13.15" pos="127.34" lane="e0_0" slope="0.00"/>
    </timestep>
    <timestep time="69.50">
        <vehicle id="background.0" x="299.00" y="-1.60" angle="90.00" type="human" speed="0.00" pos="299.00" lane="e0_0" slope="0.00"/>
        <vehicle id="background.1" x="280.34" y="-1.60" angle="90.00" type="human" speed="8.68" pos="280.34" lane="e0_0" slope="0.00"/>
        <vehicle id="background.2" x="156.67" y="-1.60" angle="90.00" type="human" speed="12.58" pos="156.67" lane="e0_0" slope="0.00"/>
        <vehicle id="background.3" x="133.89" y="-1.60" angle="90.00" type="human" speed="13.11" pos="133.89" lane="e0_0" slope="0.00"/>
    </timestep>
    <timestep time="70.00">
        <vehicle id="background.0" x="299.00" y="-1.60" angle="90.00" type="human" speed="0.00" pos="299.00" lane="e0_0" slope="0.00"/>
        <vehicle id="background.1" x="283.87" y="-1.60" angle="90.00" type="human" speed="7.05" pos="283.87" lane="e0_0" slope="0.00"/>
        <vehicle id="background.2" x="163.01" y="-1.60" angle="90.00" type="human" speed="12.69" pos="163.01" lane="e0_0" slope="0.00"/>
        <vehicle id="background.3" x="140.33" y="-1.60" angle="90.00" type="human" speed="12.87" pos="140.33" lane="e0_0" slope="0.00"/>
    </timestep>
    <timestep time="70.50">
        <vehicle id="background.0" x="299.00" y="-1.60" angle="90.00" type="human" speed="0.00" pos="299.00" lane="e0_0" slope="0.00"/>
        <vehicle id="background.1" x="286.48" y="-1.60" angle="90.00" type="human" speed="5.24" pos="286.48" lane="e0_0" slope="0.00"/>
        <vehicle id="background.2" x="169.45" y="-1.60" angle="90.00" type="human" speed="12.88" pos="169.45" lane="e0_0" slope="0.00"/>
        <vehicle id="background.3" x="146.80" y="-1.60" angle="90.00" type="human" speed="12.94" pos="146.80" lane="e0_0" slope="0.00"/>
    </timestep>
    <timestep time="71.00">
        <vehicle id="background.0" x="299.00" y="-1.60" angle="90.00" type="human" speed="0.00" pos="299.00" lane="e0_0" slope="0.00"/>
        <vehicle id="background.1" x="288.35" y="-1.60" angle="90.00" type="human" speed="3.74" pos="288.35" lane="e0_0" slope="0.00"/>
        <vehicle id="background.2" x="175.86" y="-1.60" angle="90.00" type="human" speed="12.82" pos="175.86" lane="e0_0" slope="0.00"/>
        <vehicle id="background.3" x="153.36" y="-1.60" angle="90.00" type="human" speed="13.13" pos="153.36" lane="e0_0" slope="0.00"/>
    </timestep>
    <timestep time="71.50">
        <vehicle id="background.0" x="299.00" y="-1.60" angle="90.00" type="human" speed="0.00" pos="299.00" lane="e0_0" slope="0.00"/>
        <vehicle id="background.1" x="289.59" y="-1.60" angle="90.00" type="human" speed="2.47" pos="289.59" lane="e0_0" slope="0.00"/>
        <vehicle id="background.2" x="182.22" y="-1.60" angle="90.00" type="human" speed="12.72" pos="182.22" lane="e0_0" slope="0.00"/>
        <vehicle id="background.3" x="159.95" y="-1.60" angle="90.00" type="human" speed="13.19" pos="159.95" lane="e0_0" slope="0.00"/>
    </timestep>
    <timestep time="72.00">
        <vehicle id="background.0" x="299.00" y="-1.60" angle="90.00" type="human" speed="0.00" pos="299.00" lane="e0_0" slope="0.00"/>
        <vehicle id="background.1" x="290.35" y="-1.60" angle="90.00" type="human" speed="1.53" pos="290.35" lane="e0_0" slope="0.00"/>
        <vehicle id="background.2" x="188.48" y="-1.60" angle="90.00" type="human" speed="12.50" pos="188.48" lane="e0_0" slope="0.00"/>
        <vehicle id="background.3" x="166.43" y="-1.60" angle="90.00" type="human" speed="12.95" pos="166.43" lane="e0_0" slope="0.00"/>
    </timestep>
    <timestep time="72.50">
        <vehicle id="background.0" x="299.00" y="-1.60" angle="90.00" type="human" speed="0.00" pos="299.00" lane="e0_0" slope="0.00"/>
        <vehicle id="background.1" x="290.79" y="-1.60" angle="90.00" type="human" speed="0.87" pos="290.79" lane="e0_0" slope="0.00"/>
        <vehicle id="background.2" x="194.74" y="-1.60" angle="90.00" type="human" speed="12.54" pos="194.74" lane="e0_0" slope="0.00"/>
        <vehicle id="background.3" x="172.91" y="-1.60" angle="90.00" type="human" speed="12.95" pos="172.91" lane="e0_0" slope="0.00"/>
    </timestep>
    <timestep time="73.00">
        <vehicle id="background.0" x="299.00" y="-1.60" angle="90.00" type="human" speed="0.00" pos="299.00" lane="e0_0" slope="0.00"/>
        <vehicle id="background.1" x="291.06" y="-1.60" angle="90.00" type="human" speed="0.54" pos="291.06" lane="e0_0" slope="0.00"/>
        <vehicle id="background.2" x="201.07" y="-1.60" angle="90.00" type="human" speed="12.66" pos="201.07" lane="e0_0" slope="0.00"/>
        <vehicle id="background.3" x="179.26" y="-1.60" angle="90.00" type="human" speed="12.71" pos="179.26" lane="e0_0" slope="0.00"/>
    </timestep>
    <timestep time="73.50">
        <vehicle id="background.0" x="299.00" y="-1.60" angle="90.00" type="human" speed="0.00" pos="299.00" lane="e0_0" slope="0.00"/>