<?xml version="1.0" encoding="UTF-8"?>

<!-- generated on 2026-05-14 17:06:01 by Eclipse SUMO sumo Version 1.24.0
<sumoConfiguration xmlns:xsi="http://www.w3.org/2001/XMLSchema-instance" xsi:noNamespaceSchemaLocation="http://sumo.dlr.de/xsd/sumoConfiguration.xsd">

    <input>
        <net-file value="scenarios/simple_arterial/simple_arterial.net.xml"/>
        <route-files value="scenarios/simple_arterial/simple_arterial_glosa.rou.xml"/>
        <additional-files value="scenarios/simple_arterial/simple_arterial.tls.xml"/>
    </input>

    <output>
        <fcd-output value="runs/fcd_expert_glosa/episode_00035_seed_77.fcd.xml"/>
    </output>

    <time>
        <begin value="0"/>
        <end value="900"/>
        <step-length value="0.5"/>
    </time>

    <report>
        <no-warnings value="true"/>
    </report>

    <traci_server>
        <remote-port value="37703"/>
    </traci_server>

    <random_number>
        <seed value="77"/>
    </random_number>

</sumoConfiguration>
-->

<fcd-export xmlns:xsi="http://www.w3.org/2001/XMLSchema-instance" xsi:noNamespaceSchemaLocation="http://sumo.dlr.de/xsd/fcd_file.xsd">
    <timestep time="0.00"/>
    <timestep time="0.50"/>
    <timestep time="1.00"/>
    <timestep time="1.50"/>
    <timestep time="2.00"/>
    <timestep time="2.50"/>
    <timestep time="3.00"/>
    <timestep time="3.50"/>
    <timestep time="4.00"/>
    <timestep time="4.50"/>
    <timestep time="5.00"/>
    <timestep time="5.50"/>
    <timestep time="6.00"/>
    <timestep time="6.50"/>
    <timestep time="7.00"/>
    <timestep time="7.50"/>
    <timestep time="8.00"/>
    <timestep time="8.50"/>
    <timestep time="9.00"/>
    <timestep time="9.50"/>
    <timestep time="10.00"/>
    <timestep time="10.50"/>
    <timestep time="11.00"/>
    <timestep time="11.50"/>
    <timestep time="12.00"/>
    <timestep time="12.50"/>
    <timestep time="13.00"/>
    <timestep time="13.50"/>
    <timestep time="14.00"/>
    <timestep time="14.50"/>
    <timestep time="15.00"/>
    <timestep time="15.50"/>
    <timestep time="16.00"/>
    <timestep time="16.50"/>
    <timestep time="17.00"/>
    <timestep time="17.50"/>
    <timestep time="18.00"/>
    <timestep time="18.50"/>
    <timestep time="19.00"/>
    <timestep time="19.50"/>
    <timestep time="20.00"/>
    <timestep time="20.50"/>
    <timestep time="21.00"/>
    <timestep time="21.50"/>
    <timestep time="22.00"/>
    <timestep time="22.50"/>
    <timestep time="23.00"/>
    <timestep time="23.50"/>
    <timestep time="24.00"/>
    <timestep time="24.50"/>
    <timestep time="25.00"/>
    <timestep time="25.50"/>
    <timestep time="26.00"/>
    <timestep time="26.50"/>
    <timestep time="27.00"/>
    <timestep time="27.50"/>
    <timestep time="28.00"/>
    <timestep time="28.50"/>
    <timestep time="29.00"/>
    <timestep time="29.50"/>
    <timestep time="30.00"/>
    <timestep time="30.50"/>
    <timestep time="31.00"/>
    <timestep time="31.50"/>
    <timestep time="32.00"/>
    <timestep time="32.50"/>
    <timestep time="33.00"/>
    <timestep time="33.50"/>
    <timestep time="34.00"/>
    <timestep time="34.50">
        <vehicle id="background.0" x="5.10" y="-1.60" angle="90.00" type="human" speed="13.89" pos="5.10" lane="e0_0" slope="0.00"/>
    </timestep>
    <timestep time="35.00">
        <vehicle id="background.0" x="12.03" y="-1.60" angle="90.00" type="human" speed="13.87" pos="12.03" lane="e0_0" slope="0.00"/>
    </timestep>
    <timestep time="35.50">
        <vehicle id="background.0" x="18.76" y="-1.60" angle="90.00" type="human" speed="13.45" pos="18.76" lane="e0_0" slope="0.00"/>
    </timestep>
    <timestep time="36.00">
        <vehicle id="background.0" x="25.53" y="-1.60" angle="90.00" type="human" speed="13.55" pos="25.53" lane="e0_0" slope="0.00"/>
    </timestep>
    <timestep time="36.50">
        <vehicle id="background.0" x="32.33" y="-1.60" angle="90.00" type="human" speed="13.60" pos="32.33" lane="e0_0" slope="0.00"/>
    </timestep>
    <timestep time="37.00">
        <vehicle id="background.0" x="39.08" y="-1.60" angle="90.00" type="human" speed="13.49" pos="39.08" lane="e0_0" slope="0.00"/>
    </timestep>
    <timestep time="37.50">
        <vehicle id="background.0" x="45.87" y="-1.60" angle="90.00" type="human" speed="13.59" pos="45.87" lane="e0_0" slope="0.00"/>
    </timestep>
    <timestep time="38.00">
        <vehicle id="background.0" x="52.62" y="-1.60" angle="90.00" type="human" speed="13.49" pos="52.62" lane="e0_0" slope="0.00"/>
    </timestep>
    <timestep time="38.50">
        <vehicle id="background.0" x="59.48" y="-1.60" angle="90.00" type="human" speed="13.73" pos="59.48" lane="e0_0" slope="0.00"/>
    </timestep>
    <timestep time="39.00">
        <vehicle id="background.0" x="66.19" y="-1.60" angle="90.00" type="human" speed="13.41" pos="66.19" lane="e0_0" slope="0.00"/>
    </timestep>
    <timestep time="39.50">
        <vehicle id="background.0" x="72.94" y="-1.60" angle="90.00" type="human" speed="13.51" pos="72.94" lane="e0_0" slope="0.00"/>
    </timestep>
    <timestep time="40.00">
        <vehicle id="background.0" x="79.77" y="-1.60" angle="90.00" type="human" speed="13.67" pos="79.77" lane="e0_0" slope="0.00"/>
    </timestep>
    <timestep time="40.50">
        <vehicle id="background.0" x="86.47" y="-1.60" angle="90.00" type="human" speed="13.39" pos="86.47" lane="e0_0" slope="0.00"/>
    </timestep>
    <timestep time="41.00">
        <vehicle id="background.0" x="93.21" y="-1.60" angle="90.00" type="human" speed="13.47" pos="93.21" lane="e0_0" slope="0.00"/>
    </timestep>
    <timestep time="41.50">
        <vehicle id="background.0" x="100.01" y="-1.60" angle="90.00" type="human" speed="13.61" pos="100.01" lane="e0_0" slope="0.00"/>
    </timestep>
    <timestep time="42.00">
        <vehicle id="background.0" x="106.90" y="-1.60" angle="90.00" type="human" speed="13.77" pos="106.90" lane="e0_0" slope="0.00"/>
    </timestep>
    <timestep time="42.50">
        <vehicle id="background.0" x="113.65" y="-1.60" angle="90.00" type="human" speed="13.51" pos="113.65" lane="e0_0" slope="0.00"/>
    </timestep>
    <timestep time="43.00">
        <vehicle id="background.0" x="120.58" y="-1.60" angle="90.00" type="human" speed="13.86" pos="120.58" lane="e0_0" slope="0.00"/>
    </timestep>
    <timestep time="43.50">
        <vehicle id="background.0" x="127.39" y="-1.60" angle="90.00" type="human" speed="13.61" pos="127.39" lane="e0_0" slope="0.00"/>
    </timestep>
    <timestep time="44.00">
        <vehicle id="background.0" x="134.21" y="-1.60" angle="90.00" type="human" speed="13.65" pos="134.21" lane="e0_0" slope="0.00"/>
    </timestep>
    <timestep time="44.50">
        <vehicle id="background.0" x="141.05" y="-1.60" angle="90.00" type="human" speed="13.67" pos="141.05" lane="e0_0" slope="0.00"/>
    </timestep>
    <timestep time="45.00">
        <vehicle id="background.0" x="147.83" y="-1.60" angle="90.00" type="human" speed="13.56" pos="147.83" lane="e0_0" slope="0.00"/>
    </timestep>
    <timestep time="45.50">
        <vehicle id="background.0" x="154.54" y="-1.60" angle="90.00" type="human" speed="13.41" pos="154.54" lane="e0_0" slope="0.00"/>
    </timestep>
    <timestep time="46.00">
        <vehicle id="background.0" x="161.25" y="-1.60" angle="90.00" type="human" speed="13.43" pos="161.25" lane="e0_0" slope="0.00"/>
    </timestep>
    <timestep time="46.50">
        <vehicle id="background.0" x="168.00" y="-1.60" angle="90.00" type="human" speed="13.49" pos="168.00" lane="e0_0" slope="0.00"/>
    </timestep>
    <timestep time="47.00">
        <vehicle id="background.0" x="174.76" y="-1.60" angle="90.00" type="human" speed="13.52" pos="174.76" lane="e0_0" slope="0.00"/>
    </timestep>
    <timestep time="47.50">
        <vehicle id="background.0" x="181.53" y="-1.60" angle="90.00" type="human" speed="13.55" pos="181.53" lane="e0_0" slope="0.00"/>
    </timestep>
    <timestep time="48.00">
        <vehicle id="background.0" x="188.42" y="-1.60" angle="90.00" type="human" speed="13.77" pos="188.42" lane="e0_0" slope="0.00"/>
    </timestep>
    <timestep time="48.50">
        <vehicle id="background.0" x="195.24" y="-1.60" angle="90.00" type="human" speed="13.65" pos="195.24" lane="e0_0" slope="0.00"/>
    </timestep>
    <timestep time="49.00">
        <vehicle id="background.0" x="202.06" y="-1.60" angle="90.00" type="human" speed="13.63" pos="202.06" lane="e0_0" slope="0.00"/>
    </timestep>
    <timestep time="49.50">
        <vehicle id="background.0" x="208.80" y="-1.60" angle="90.00" type="human" speed="13.48" pos="208.80" lane="e0_0" slope="0.00"/>
    </timestep>
    <timestep time="50.00">
        <vehicle id="background.0" x="215.58" y="-1.60" angle="90.00" type="human" speed="13.56" pos="215.58" lane="e0_0" slope="0.00"/>
    </timestep>
    <timestep time="50.50">
        <vehicle id="background.0" x="222.29" y="-1.60" angle="90.00" type="human" speed="13.44" pos="222.29" lane="e0_0" slope="0.00"/>
    </timestep>
    <timestep time="51.00">
        <vehicle id="background.0" x="229.17" y="-1.60" angle="90.00" type="human" speed="13.74" pos="229.17" lane="e0_0" slope="0.00"/>
    </timestep>
    <timestep time="51.50">
        <vehicle id="background.0" x="236.00" y="-1.60" angle="90.00" type="human" speed="13.66" pos="236.00" lane="e0_0" slope="0.00"/>
    </timestep>
    <timestep time="52.00">
        <vehicle id="background.0" x="242.72" y="-1.60" angle="90.00" type="human" speed="13.45" pos="242.72" lane="e0_0" slope="0.00"/>
    </timestep>
    <timestep time="52.50">
        <vehicle id="background.0" x="249.45" y="-1.60" angle="90.00" type="human" speed="13.45" pos="249.45" lane="e0_0" slope="0.00"/>
        <vehicle id="background.1" x="5.10" y="-1.60" angle="90.00" type="human" speed="13.41" pos="5.10" lane="e0_0" slope="0.00"/>
    </timestep>
    <timestep time="53.00">
        <vehicle id="background.0" x="256.17" y="-1.60" angle="90.00" type="human" speed="13.45" pos="256.17" lane="e0_0" slope="0.00"/>
        <vehicle id="background.1" x="11.64" y="-1.60" angle="90.00" type="human" speed="13.08" pos="11.64" lane="e0_0" slope="0.00"/>
    </timestep>
    <timestep time="53.50">
        <vehicle id="background.0" x="262.98" y="-1.60" angle="90.00" type="human" speed="13.61" pos="262.98" lane="e0_0" slope="0.00"/>
        <vehicle id="background.1" x="18.29" y="-1.60" angle="90.00" type="human" speed="13.30" pos="18.29" lane="e0_0" slope="0.00"/>
    </timestep>
    <timestep time="54.00">
        <vehicle id="background.0" x="269.87" y="-1.60" angle="90.00" type="human" speed="13.78" pos="269.87" lane="e0_0" slope="0.00"/>
        <vehicle id="background.1" x="24.81" y="-1.60" angle="90.00" type="human" speed="13.04" pos="24.81" lane="e0_0" slope="0.00"/>
    </timestep>
    <timestep time="54.50">
        <vehicle id="background.0" x="276.58" y="-1.60" angle="90.00" type="human" speed="13.42" pos="276.58" lane="e0_0" slope="0.00"/>
        <vehicle id="background.1" x="31.40" y="-1.60" angle="90.00" type="human" speed="13.17" pos="31.40" lane="e0_0" slope="0.00"/>
    </timestep>
    <timestep time="55.00">
        <vehicle id="background.0" x="283.03" y="-1.60" angle="90.00" type="human" speed="12.90" pos="283.03" lane="e0_0" slope="0.00"/>
        <vehicle id="background.1" x="37.87" y="-1.60" angle="90.00" type="human" speed="12.95" pos="37.87" lane="e0_0" slope="0.00"/>
    </timestep>
    <timestep time="55.50">
        <vehicle id="background.0" x="288.44" y="-1.60" angle="90.00" type="human" speed="10.81" pos="288.44" lane="e0_0" slope="0.00"/>
        <vehicle id="background.1" x="44.56" y="-1.60" angle="90.00" type="human" speed="13.38" pos="44.56" lane="e0_0" slope="0.00"/>
    </timestep>
    <timestep time="56.00">
        <vehicle id="background.0" x="292.72" y="-1.60" angle="90.00" type="human" speed="8.56" pos="292.72" lane="e0_0" slope="0.00"/>
        <vehicle id="background.1" x="51.05" y="-1.60" angle="90.00" type="human" speed="12.97" pos="51.05" lane="e0_0" slope="0.00"/>
    </timestep>
    <timestep time="56.50">
        <vehicle id="background.0" x="295.87" y="-1.60" angle="90.00" type="human" speed="6.31" pos="295.87" lane="e0_0" slope="0.00"/>
        <vehicle id="background.1" x="57.53" y="-1.60" angle="90.00" type="human" speed="12.97" pos="57.53" lane="e0_0" slope="0.00"/>
    </timestep>
    <timestep time="57.00">
        <vehicle id="background.0" x="297.90" y="-1.60" angle="90.00" type="human" speed="4.06" pos="297.90" lane="e0_0" slope="0.00"/>
        <vehicle id="background.1" x="64.01" y="-1.60" angle="90.00" type="human" speed="12.95" pos="64.01" lane="e0_0" slope="0.00"/>
    </timestep>
    <timestep time="57.50">
        <vehicle id="background.0" x="299.00" y="-1.60" angle="90.00" type="human" speed="2.18" pos="299.00" lane="e0_0" slope="0.00"/>
        <vehicle id="background.1" x="70.48" y="-1.60" angle="90.00" type="human" speed="12.94" pos="70.48" lane="e0_0" slope="0.00"/>
    </timestep>
    <timestep time="58.00">
        <vehicle id="background.0" x="299.00" y="-1.60" angle="90.00" type="human" speed="0.01" pos="299.00" lane="e0_0" slope="0.00"/>
        <vehicle id="background.1" x="77.02" y="-1.60" angle="90.00" type="human" speed="13.08" pos="77.02" lane="e0_0" slope="0.00"/>
    </timestep>
    <timestep time="58.50">
        <vehicle id="background.0" x="299.00" y="-1.60" angle="90.00" type="human" speed="0.00" pos="299.00" lane="e0_0" slope="0.00"/>
        <vehicle id="background.1" x="83.58" y="-1.60" angle="90.00" type="human" speed="13.12" pos="83.58" lane="e0_0" slope="0.00"/>
    </timestep>
    <timestep time="59.00">
        <vehicle id="background.0" x="299.00" y="-1.60" angle="90.00" type="human" speed="0.00" pos="299.00" lane="e0_0" slope="0.00"/>
        <vehicle id="background.1" x="90.06" y="-1.60" angle="90.00" type="human" speed="12.95" pos="90.06" lane="e0_0" slope="0.00"/>
    </timestep>
    <timestep time="59.50">
        <vehicle id="background.0" x="299.00" y="-1.60" angle="90.00" type="human" speed="0.00" pos="299.00" lane="e0_0" slope="0.00"/>
        <vehicle id="background.1" x="96.65" y="-1.60" angle="90.00" type="human" speed="13.19" pos="96.65" lane="e0_0" slope="0.00"/>
    </timestep>
    <timestep time="60.00">
        <vehicle id="background.0" x="299.00" y="-1.60" angle="90.00" type="human" speed="0.00" pos="299.00" lane="e0_0" slope="0.00"/>
        <vehicle id="background.1" x="103.17" y="-1.60" angle="90.00" type="human" speed="13.03" pos="103.17" lane="e0_0" slope="0.00"/>
    </timestep>
    <timestep time="60.50">
        <vehicle id="background.0" x="299.00" y="-1.60" angle="90.00" type="human" speed="0.00" pos="299.00" lane="e0_0" slope="0.00"/>
        <vehicle id="background.1" x="109.72" y="-1.60" angle="90.00" type="human" speed="13.11" pos="109.72" lane="e0_0" slope="0.00"/>
    </timestep>
    <timestep time="61.00">
        <vehicle id="background.0" x="299.00" y="-1.60" angle="90.00" type="human" speed="0.00" pos="299.00" lane="e0_0" slope="0.00"/>
        <vehicle id="background.1" x="116.41" y="-1.60" angle="90.00" type="human" speed="13.38" pos="116.41" lane="e0_0" slope="0.00"/>
    </timestep>
    <timestep time="61.50">
        <vehicle id="background.0" x="299.00" y="-1.60" angle="90.00" type="human" speed="0.00" pos="299.00" lane="e0_0" slope="0.00"/>
        <vehicle id="background.1" x="122.98" y="-1.60" angle="90.00" type="human" speed="13.14" pos="122.98" lane="e0_0" slope="0.00"/>
    </timestep>
    <timestep time="62.00">
        <vehicle id="background.0" x="299.00" y="-1.60" angle="90.00" type="human" speed="0.00" pos="299.00" lane="e0_0" slope="0.00"/>
        <vehicle id="background.1" x="129.61" y="-1.60" angle="90.00" type="human" speed="13.26" pos="129.61" lane="e0_0" slope="0.00"/>
    </timestep>
    <timestep time="62.50">
        <vehicle id="background.0" x="299.00" y="-1.60" angle="90.00" type="human" speed="0.00" pos="299.00" lane="e0_0" slope="0.00"/>
        <vehicle id="background.1" x="136.13" y="-1.60" angle="90.00" type="human" speed="13.03" pos="136.13" lane="e0_0" slope="0.00"/>
    </timestep>
    <timestep time="63.00">
        <vehicle id="background.0" x="299.00" y="-1.60" angle="90.00" type="human" speed="0.00" pos="299.00" lane="e0_0" slope="0.00"/>
        <vehicle id="background.1" x="142.82" y="-1.60" angle="90.00" type="human" speed="13.39" pos="142.82" lane="e0_0" slope="0.00"/>
    </timestep>
    <timestep time="63.50">
        <vehicle id="background.0" x="299.00" y="-1.60" angle="90.00" type="human" speed="0.00" pos="299.00" lane="e0_0" slope="0.00"/>
        <vehicle id="background.1" x="149.34" y="-1.60" angle="90.00" type="human" speed="13.03" pos="149.34" lane="e0_0" slope="0.00"/>
    </timestep>
    <timestep time="64.00">
        <vehicle id="background.0" x="299.00" y="-1.60" angle="90.00" type="human" speed="0.00" pos="299.00" lane="e0_0" slope="0.00"/>
        <vehicle id="background.1" x="155.97" y="-1.60" angle="90.00" type="human" speed="13.25" pos="155.97" lane="e0_0" slope="0.00"/>
    </timestep>
    <timestep time="64.50">
        <vehicle id="background.0" x="299.00" y="-1.60" angle="90.00" type="human" speed="0.00" pos="299.00" lane="e0_0" slope="0.00"/>
        <vehicle id="background.1" x="162.46" y="-1.60" angle="90.00" type="human" speed="12.98" pos="162.46" lane="e0_0" slope="0.00"/>
        <vehicle id="background.2" x="5.10" y="-1.60" angle="90.00" type="human" speed="12.98" pos="5.10" lane="e0_0" slope="0.00"/>
    </timestep>
    <timestep time="65.00">
        <vehicle id="background.0" x="299.00" y="-1.60" angle="90.00" type="human" speed="0.00" pos="299.00" lane="e0_0" slope="0.00"/>
        <vehicle id="background.1" x="169.00" y="-1.60" angle="90.00" type="human" speed="13.09" pos="169.00" lane="e0_0" slope="0.00"/>
        <vehicle id="background.2" x="11.50" y="-1.60" angle="90.00" type="human" speed="12.80" pos="11.50" lane="e0_0" slope="0.00"/>
    </timestep>
    <timestep time="65.50">
        <vehicle id="background.0" x="299.00" y="-1.60" angle="90.00" type="human" speed="0.00" pos="299.00" lane="e0_0" slope="0.00"/>
        <vehicle id="background.1" x="175.49" y="-1.60" angle="90.00" type="human" speed="12.97" pos="175.49" lane="e0_0" slope="0.00"/>
        <vehicle id="background.2" x="17.84" y="-1.60" angle="90.00" type="human" speed="12.67" pos="17.84" lane="e0_0" slope="0.00"/>
        <vehicle id="background.3" x="5.10" y="-1.60" angle="90.00" type="human" speed="10.42" pos="5.10" lane="e0_0" slope="0.00"/>
    </timestep>
    <timestep time="66.00">
        <vehicle id="background.0" x="299.00" y="-1.60" angle="90.00" type="human" speed="0.00" pos="299.00" lane="e0_0" slope="0.00"/>
        <vehicle id="background.1" x="182.16" y="-1.60" angle="90.00" type="human" speed="13.34" pos="182.16" lane="e0_0" slope="0.00"/>
        <vehicle id="background.2" x="24.26" y="-1.60" angle="90.00" type="human" speed="12.85" pos="24.26" lane="e0_0" slope="0.00"/>
        <vehicle id="background.3" x="10.27" y="-1.60" angle="90.00" type="human" speed="10.34" pos="10.27" lane="e0_0" slope="0.00"/>
    </timestep>
    <timestep time="66.50">
        <vehicle id="background.0" x="299.00" y="-1.60" angle="90.00" type="human" speed="0.00" pos="299.00" lane="e0_0" slope="0.00"/>
        <vehicle id="background.1" x="188.64" y="-1.60" angle="90.00" type="human" speed="12.97" pos="188.64" lane="e0_0" slope="0.00"/>
        <vehicle id="background.2" x="30.55" y="-1.60" angle="90.00" type="human" speed="12.59" pos="30.55" lane="e0_0" slope="0.00"/>
        <vehicle id="background.3" x="15.62" y="-1.60" angle="90.00" type="human" speed="10.70" pos="15.62" lane="e0_0" slope="0.00"/>
    </timestep>
    <timestep time="67.00">
        <vehicle id="background.0" x="299.00" y="-1.60" angle="90.00" type="human" speed="0.00" pos="299.00" lane="e0_0" slope="0.00"/>
        <vehicle id="background.1" x="195.23" y="-1.60" angle="90.00" type="human" speed="13.18" pos="195.23" lane="e0_0" slope="0.00"/>
        <vehicle id="background.2" x="36.90" y="-1.60" angle="90.00" type="human" speed="12.69" pos="36.90" lane="e0_0" slope="0.00"/>
        <vehicle id="background.3" x="21.02" y="-1.60" angle="90.00" type="human" speed="10.82" pos="21.02" lane="e0_0" slope="0.00"/>
    </timestep>
    <timestep time="67.50">
        <vehicle id="background.0" x="299.00" y="-1.60" angle="90.00" type="human" speed="0.00" pos="299.00" lane="e0_0" slope="0.00"/>
        <vehicle id="background.1" x="201.85" y="-1.60" angle="90.00" type="human" speed="13.24" pos="201.85" lane="e0_0" slope="0.00"/>
        <vehicle id="background.2" x="43.27" y="-1.60" angle="90.00" type="human" speed="12.75" pos="43.27" lane="e0_0" slope="0.00"/>
        <vehicle id="background.3" x="26.71" y="-1.60" angle="90.00" type="human" speed="11.37" pos="26.71" lane="e0_0" slope="0.00"/>
    </timestep>
    <timestep time="68.00">
        <vehicle id="background.0" x="299.00" y="-1.60" angle="90.00" type="human" speed="0.00" pos="299.00" lane="e0_0" slope="0.00"/>
        <vehicle id="background.1" x="208.38" y="-1.60" angle="90.00" type="human" speed="13.05" pos="208.38" lane="e0_0" slope="0.00"/>
        <vehicle id="background.2" x="49.69" y="-1.60" angle="90.00" type="human" speed="12.85" pos="49.69" lane="e0_0" slope="0.00"/>
        <vehicle id="background.3" x="32.52" y="-1.60" angle="90.00" type="human" speed="11.61" pos="32.52" lane="e0_0" slope="0.00"/>
    </timestep>
    <timestep time="68.50">
        <vehicle id="background.0" x="299.00" y="-1.60" angle="90.00" type="human" speed="0.00" pos="299.00" lane="e0_0" slope="0.00"/>
        <vehicle id="background.1" x="215.01" y="-1.60" angle="90.00" type="human" speed="13.26" pos="215.01" lane="e0_0" slope="0.00"/>
        <vehicle id="background.2" x="56.15" y="-1.60" angle="90.00" type="human" speed="12.92" pos="56.15" lane="e0_0" slope="0.00"/>
        <vehicle id="background.3" x="38.35" y="-1.60" angle="90.00" type="human" speed="11.67" pos="38.35" lane="e0_0" slope="0.00"/>
    </timestep>
    <timestep time="69.00">
        <vehicle id="background.0" x="299.00" y="-1.60" angle="90.00" type="human" speed="0.00" pos="299.00" lane="e0_0" slope="0.00"/>
        <vehicle id="background.1" x="221.57" y="-1.60" angle="90.00" type="human" speed="13.13" pos="221.57" lane="e0_0" slope="0.00"/>
        <vehicle id="background.2" x="62.41" y="-1.60" angle="90.00" type="human" speed="12.52" pos="62.41" lane="e0_0" slope="0.00"/>
        <vehicle id="background.3" x="44.37" y="-1.60" angle="90.00" type="human" speed="12.04" pos="44.37" lane="e0_0" slope="0.00"/>
    </timestep>
    <timestep time="69.50">
        <vehicle id="background.0" x="299.00" y="-1.60" angle="90.00" type="human" speed="0.00" pos="299.00" lane="e0_0" slope="0.00"/>
        <vehicle id="background.1" x="228.07" y="-1.60" angle="90.00" type="human" speed="13.01" pos="228.07" lane="e0_0" slope="0.00"/>
        <vehicle id="background.2" x="68.73" y="-1.60" angle="90.00" type="human" speed="12.63" pos="68.73" lane="e0_0" slope="0.00"/>
        <vehicle id="background.3" x="50.18" y="-1.60" angle="90.00" type="human" speed="11.63" pos="50.18" lane="e0_0" slope="0.00"/>
    </timestep>
    <timestep time="70.00">
        <vehicle id="background.0" x="299.00" y="-1.60" angle="90.00" type="human" speed="0.00" pos="299.00" lane="e0_0" slope="0.00"/>
        <vehicle id="background.1" x="234.60" y="-1.60" angle="90.00" type="human" speed="13.05" pos="234.60" lane="e0_0" slope="0.00"/>
        <vehicle id="background.2" x="75.08" y="-1.60" angle="90.00" type="human" speed="12.71" pos="75.08" lane="e0_0" slope="0.00"/>
        <vehicle id="background.3" x="56.04" y="-1.60" angle="90.00" type="human" speed="11.71" pos="56.04" lane="e0_0" slope="0.00"/>
    </timestep>
    <timestep time="70.50">
        <vehicle id="background.0" x="299.00" y="-1.60" angle="90.00" type="human" speed="0.00" pos="299.00" lane="e0_0" slope="0.00"/>
        <vehicle id="background.1" x="241.12" y="-1.60" angle="90.00" type="human" speed="13.04" pos="241.12" lane="e0_0" slope="0.00"/>
        <vehicle id="background.2" x="81.55" y="-1.60" angle="90.00" type="human" speed="12.94" pos="81.55" lane="e0_0" slope="0.00"/>
        <vehicle id="background.3" x="62.04" y="-1.60" angle="90.00" type="human" speed="12.00" pos="62.04" lane="e0_0" slope="0.00"/>
    </timestep>
    <timestep time="71.00">
        <vehicle id="background.0" x="299.00" y="-1.60" angle="90.00" type="human" speed="0.00" pos="299.00" lane="e0_0" slope="0.00"/>
        <vehicle id="background.1" x="247.62" y="-1.60" angle="90.00" type="human" speed="12.99" pos="247.62" lane="e0_0" slope="0.00"/>
        <vehicle id="background.2" x="87.83" y="-1.60" angle="90.00" type="human" speed="12.57" pos="87.83" lane="e0_0" slope="0.00"/>
        <vehicle id="background.3" x="68.27" y="-1.60" angle="90.00" type="human" speed="12.47" pos="68.27" lane="e0_0" slope="0.00"/>
        <vehicle id="ego" x="5.10" y="-1.60" angle="90.00" type="ego_glosa_type" speed="0.00" pos="5.10" lane="e0_0" slope="0.00"/>
    </timestep>
    <timestep time="71.50">
        <vehicle id="background.0" x="299.00" y="-1.60" angle="90.00" type="human" speed="0.00" pos="299.00" lane="e0_0" slope="0.00"/>
        <vehicle id="background.1" x="254.25" y="-1.60" angle="90.00" type="human" speed="13.26" pos="254.25" lane="e0_0" slope="0.00"/>
        <vehicle id="background.2" x="94.15" y="-1.60" angle="90.00" type="human" speed="12.63" pos="94.15" lane="e0_0" slope="0.00"/>
        <vehicle id="background.3" x="74.34" y="-1.60" angle="90.00" type="human" speed="12.13" pos="74.34" lane="e0_0" slope="0.00"/>
        <vehicle id="ego" x="5.60" y="-1.60" angle="90.00" type="ego_glosa_type" speed="1.00" pos="5.60" lane="e0_0" slope="0.00"/>
    </timestep>
    <timestep time="72.00">
        <vehicle id="background.0" x="299.00" y="-1.60" angle="90.00" type="human" speed="0.00" pos="299.00" lane="e0_0" slope="0.00"/>
        <vehicle id="background.1" x="260.87" y="-1.60" angle="90.00" type="human" speed="13.24" pos="260.87" lane="e0_0" slope="0.00"/>
        <vehicle id="background.2" x="100.53" y="-1.60" angle="90.00" type="human" speed="12.77" pos="100.53" lane="e0_0" slope="0.00"/>
        <vehicle id="background.3" x="80.38" y="-1.60" angle="90.00" type="human" speed="12.08" pos="80.38" lane="e0_0" slope="0.00"/>
        <vehicle id="ego" x="6.60" y="-1.60" angle="90.00" type="ego_glosa_type" speed="2.00" pos="6.60" lane="e0_0" slope="0.00"/>
    </timestep>
    <timestep time="72.50">
        <vehicle id="background.0" x="299.00" y="-1.60" angle="90.00" type="human" speed="0.00" pos="299.00" lane="e0_0" slope="0.00"/>
        <vehicle id="background.1" x="267.56" y="-1.60" angle="90.00" type="human" speed="13.39" pos="267.56" lane="e0_0" slope="0.00"/>
        <vehicle id="background.2" x="106.90" y="-1.60" angle="90.00" type="human" speed="12.74" pos="106.90" lane="e0_0" slope="0.00"/>
        <vehicle id="background.3" x="86.64" y="-1.60" angle="90.00" type="human" speed="12.53" pos="86.64" lane="e0_0" slope="0.00"/>
        <vehicle id="ego" x="8.10" y="-1.60" angle="90.00" type="ego_glosa_type" speed="3.00" pos="8.10" lane="e0_0" slope="0.00"/>
    </timestep>
    <timestep time="73.00">
        <vehicle id="background.0" x="299.00" y="-1.60" angle="90.00" type="human" speed="0.00" pos="299.00" lane="e0_0" slope="0.00"/>
        <vehicle id="background.1" x="273.17" y="-1.60" angle="90.00" type="human" speed="11.21" pos="273.17" lane="e0_0" slope="0.00"/>
        <vehicle id="background.2" x="113.26" y="-1.60" angle="90.00" type="human" speed="12.72" pos="113.26" lane="e0_0" slope="0.00"/>
        <vehicle id="background.3" x="92.88" y="-1.60" angle="90.00" type="human" speed="12.48" pos="92.88" lane="e0_0" slope="0.00"/>
        <vehicle id="ego" x="10.10" y="-1.60" angle="90.00" type="ego_glosa_type" speed="4.00" pos="10.10" lane="e0_0" slope="0.00"/>
    </timestep>
    <timestep time="73.50">
        <vehicle id="background.0" x="299.00" y="-1.60" angle="90.00" type="human" speed="0.00" pos="299.00" lane="e0_0" slope="0.00"/>
        <vehicle id="background.1" x="278.07" y="-1.60" angle="90.00" type="human" speed="9.79" pos="278.07" lane="e0_0" slope="0.00"/>
        <vehicle id="background.2" x="119.51" y="-1.60" angle="90.00" type="human" speed="12.50" pos="119.51" lane="e0_0" slope="0.00"/>
        <vehicle id="background.3" x="99.21" y="-1.60" angle="90.00" type="human" speed="12.66" pos="99.21" lane="e0_0" slope="0.00"/>
        <vehicle id="ego" x="12.60" y="-1.60" angle="90.00" type="ego_glosa_type" speed="5.00" pos="12.60" lane="e0_0" slope="0.00"/>
    </timestep>
    <timestep time="74.00">
        <vehicle id="background.0" x="299.00" y="-1.60" angle="90.00" type="human" speed="0.00" pos="299.00" lane="e0_0" slope="0.00"/>
        <vehicle id="background.1" x="281.95" y="-1.60" angle="90.00" type="human" speed="7.77" pos="281.95" lane="e0_0" slope="0.00"/>
        <vehicle id="background.2" x="125.80" y="-1.60" angle="90.00" type="human" speed="12.58" pos="125.80" lane="e0_0" slope="0.00"/>
        <vehicle id="background.3" x="105.37" y="-1.60" angle="90.00" type="human" speed="12.31" pos="105.37" lane="e0_0" slope="0.00"/>
        <vehicle id="ego" x="15.60" y="-1.60" angle="90.00" type="ego_glosa_type" speed="6.00" pos="15.60" lane="e0_0" slope="0.00"/>
    </timestep>
    <timestep time="74.50">
        <vehicle id="background.0" x="299.00" y="-1.60" angle="90.00" type="human" speed="0.00" pos="299.00" lane="e0_0" slope="0.00"/>
        <vehicle id="background.1" x="285.01" y="-1.60" angle="90.00" type="human" speed="6.13" pos="285.01" lane="e0_0" slope="0.00"/>