<?xml version="1.0" encoding="UTF-8"?>

<!-- generated on 2026-05-14 17:05:48 by Eclipse SUMO sumo Version 1.24.0
<sumoConfiguration xmlns:xsi="http://www.w3.org/2001/XMLSchema-instance" xsi:noNamespaceSchemaLocation="http://sumo.dlr.de/xsd/sumoConfiguration.xsd">

    <input>
        <net-file value="scenarios/simple_arterial/simple_arterial.net.xml"/>
        <route-files value="scenarios/simple_arterial/simple_arterial_glosa.rou.xml"/>
        <additional-files value="scenarios/simple_arterial/simple_arterial.tls.xml"/>
    </input>

    <output>
        <fcd-output value="runs/fcd_expert_glosa/episode_00024_seed_66.fcd.xml"/>
    </output>

    <time>
        <begin value="0"/>
        <end value="900"/>
        <step-length value="0.5"/>
    </time>

    <report>
        <no-warnings value="true"/>
    </report>

    <traci_server>
        <remote-port value="37703"/>
    </traci_server>

    <random_number>
        <seed value="66"/>
    </random_number>

</sumoConfiguration>
-->

<fcd-export xmlns:xsi="http://www.w3.org/2001/XMLSchema-instance" xsi:noNamespaceSchemaLocation="http://sumo.dlr.de/xsd/fcd_file.xsd">
    <timestep time="0.00"/>
    <timestep time="0.50"/>
    <timestep time="1.00"/>
    <timestep time="1.50"/>
    <timestep time="2.00"/>
    <timestep time="2.50"/>
    <timestep time="3.00"/>
    <timestep time="3.50"/>
    <timestep time="4.00"/>
    <timestep time="4.50"/>
    <timestep time="5.00"/>
    <timestep time="5.50"/>
    <timestep time="6.00"/>
    <timestep time="6.50"/>
    <timestep time="7.00"/>
    <timestep time="7.50"/>
    <timestep time="8.00"/>
    <timestep time="8.50">
        <vehicle id="background.0" x="5.10" y="-1.60" angle="90.00" type="human" speed="13.29" pos="5.10" lane="e0_0" slope="0.00"/>
    </timestep>
    <timestep time="9.00">
        <vehicle id="background.0" x="11.61" y="-1.60" angle="90.00" type="human" speed="13.02" pos="11.61" lane="e0_0" slope="0.00"/>
    </timestep>
    <timestep time="9.50">
        <vehicle id="background.0" x="18.07" y="-1.60" angle="90.00" type="human" speed="12.92" pos="18.07" lane="e0_0" slope="0.00"/>
    </timestep>
    <timestep time="10.00">
        <vehicle id="background.0" x="24.50" y="-1.60" angle="90.00" type="human" speed="12.86" pos="24.50" lane="e0_0" slope="0.00"/>
    </timestep>
    <timestep time="10.50">
        <vehicle id="background.0" x="30.91" y="-1.60" angle="90.00" type="human" speed="12.82" pos="30.91" lane="e0_0" slope="0.00"/>
    </timestep>
    <timestep time="11.00">
        <vehicle id="background.0" x="37.39" y="-1.60" angle="90.00" type="human" speed="12.95" pos="37.39" lane="e0_0" slope="0.00"/>
    </timestep>
    <timestep time="11.50">
        <vehicle id="background.0" x="43.88" y="-1.60" angle="90.00" type="human" speed="12.98" pos="43.88" lane="e0_0" slope="0.00"/>
    </timestep>
    <timestep time="12.00">
        <vehicle id="background.0" x="50.44" y="-1.60" angle="90.00" type="human" speed="13.13" pos="50.44" lane="e0_0" slope="0.00"/>
    </timestep>
    <timestep time="12.50">
        <vehicle id="background.0" x="56.88" y="-1.60" angle="90.00" type="human" speed="12.87" pos="56.88" lane="e0_0" slope="0.00"/>
    </timestep>
    <timestep time="13.00">
        <vehicle id="background.0" x="63.51" y="-1.60" angle="90.00" type="human" speed="13.26" pos="63.51" lane="e0_0" slope="0.00"/>
    </timestep>
    <timestep time="13.50">
        <vehicle id="background.0" x="69.96" y="-1.60" angle="90.00" type="human" speed="12.90" pos="69.96" lane="e0_0" slope="0.00"/>
    </timestep>
    <timestep time="14.00">
        <vehicle id="background.0" x="76.51" y="-1.60" angle="90.00" type="human" speed="13.10" pos="76.51" lane="e0_0" slope="0.00"/>
    </timestep>
    <timestep time="14.50">
        <vehicle id="background.0" x="83.12" y="-1.60" angle="90.00" type="human" speed="13.22" pos="83.12" lane="e0_0" slope="0.00"/>
    </timestep>
    <timestep time="15.00">
        <vehicle id="background.0" x="89.72" y="-1.60" angle="90.00" type="human" speed="13.19" pos="89.72" lane="e0_0" slope="0.00"/>
    </timestep>
    <timestep time="15.50">
        <vehicle id="background.0" x="96.17" y="-1.60" angle="90.00" type="human" speed="12.92" pos="96.17" lane="e0_0" slope="0.00"/>
    </timestep>
    <timestep time="16.00">
        <vehicle id="background.0" x="102.59" y="-1.60" angle="90.00" type="human" speed="12.83" pos="102.59" lane="e0_0" slope="0.00"/>
    </timestep>
    <timestep time="16.50">
        <vehicle id="background.0" x="109.01" y="-1.60" angle="90.00" type="human" speed="12.83" pos="109.01" lane="e0_0" slope="0.00"/>
    </timestep>
    <timestep time="17.00">
        <vehicle id="background.0" x="115.47" y="-1.60" angle="90.00" type="human" speed="12.93" pos="115.47" lane="e0_0" slope="0.00"/>
    </timestep>
    <timestep time="17.50">
        <vehicle id="background.0" x="121.91" y="-1.60" angle="90.00" type="human" speed="12.88" pos="121.91" lane="e0_0" slope="0.00"/>
    </timestep>
    <timestep time="18.00">
        <vehicle id="background.0" x="128.55" y="-1.60" angle="90.00" type="human" speed="13.27" pos="128.55" lane="e0_0" slope="0.00"/>
    </timestep>
    <timestep time="18.50">
        <vehicle id="background.0" x="135.06" y="-1.60" angle="90.00" type="human" speed="13.04" pos="135.06" lane="e0_0" slope="0.00"/>
    </timestep>
    <timestep time="19.00">
        <vehicle id="background.0" x="141.51" y="-1.60" angle="90.00" type="human" speed="12.88" pos="141.51" lane="e0_0" slope="0.00"/>
    </timestep>
    <timestep time="19.50">
        <vehicle id="background.0" x="148.11" y="-1.60" angle="90.00" type="human" speed="13.20" pos="148.11" lane="e0_0" slope="0.00"/>
    </timestep>
    <timestep time="20.00">
        <vehicle id="background.0" x="154.61" y="-1.60" angle="90.00" type="human" speed="13.00" pos="154.61" lane="e0_0" slope="0.00"/>
    </timestep>
    <timestep time="20.50">
        <vehicle id="background.0" x="161.14" y="-1.60" angle="90.00" type="human" speed="13.06" pos="161.14" lane="e0_0" slope="0.00"/>
    </timestep>
    <timestep time="21.00">
        <vehicle id="background.0" x="167.72" y="-1.60" angle="90.00" type="human" speed="13.17" pos="167.72" lane="e0_0" slope="0.00"/>
        <vehicle id="background.1" x="5.10" y="-1.60" angle="90.00" type="human" speed="12.99" pos="5.10" lane="e0_0" slope="0.00"/>
    </timestep>
    <timestep time="21.50">
        <vehicle id="background.0" x="174.33" y="-1.60" angle="90.00" type="human" speed="13.22" pos="174.33" lane="e0_0" slope="0.00"/>
        <vehicle id="background.1" x="11.51" y="-1.60" angle="90.00" type="human" speed="12.83" pos="11.51" lane="e0_0" slope="0.00"/>
    </timestep>
    <timestep time="22.00">
        <vehicle id="background.0" x="180.84" y="-1.60" angle="90.00" type="human" speed="13.03" pos="180.84" lane="e0_0" slope="0.00"/>
        <vehicle id="background.1" x="17.96" y="-1.60" angle="90.00" type="human" speed="12.89" pos="17.96" lane="e0_0" slope="0.00"/>
    </timestep>
    <timestep time="22.50">
        <vehicle id="background.0" x="187.35" y="-1.60" angle="90.00" type="human" speed="13.00" pos="187.35" lane="e0_0" slope="0.00"/>
        <vehicle id="background.1" x="24.37" y="-1.60" angle="90.00" type="human" speed="12.81" pos="24.37" lane="e0_0" slope="0.00"/>
    </timestep>
    <timestep time="23.00">
        <vehicle id="background.0" x="193.74" y="-1.60" angle="90.00" type="human" speed="12.80" pos="193.74" lane="e0_0" slope="0.00"/>
        <vehicle id="background.1" x="30.79" y="-1.60" angle="90.00" type="human" speed="12.86" pos="30.79" lane="e0_0" slope="0.00"/>
    </timestep>
    <timestep time="23.50">
        <vehicle id="background.0" x="200.20" y="-1.60" angle="90.00" type="human" speed="12.92" pos="200.20" lane="e0_0" slope="0.00"/>
        <vehicle id="background.1" x="37.28" y="-1.60" angle="90.00" type="human" speed="12.98" pos="37.28" lane="e0_0" slope="0.00"/>
    </timestep>
    <timestep time="24.00">
        <vehicle id="background.0" x="206.77" y="-1.60" angle="90.00" type="human" speed="13.14" pos="206.77" lane="e0_0" slope="0.00"/>
        <vehicle id="background.1" x="43.67" y="-1.60" angle="90.00" type="human" speed="12.78" pos="43.67" lane="e0_0" slope="0.00"/>
    </timestep>
    <timestep time="24.50">
        <vehicle id="background.0" x="213.37" y="-1.60" angle="90.00" type="human" speed="13.19" pos="213.37" lane="e0_0" slope="0.00"/>
        <vehicle id="background.1" x="50.06" y="-1.60" angle="90.00" type="human" speed="12.78" pos="50.06" lane="e0_0" slope="0.00"/>
    </timestep>
    <timestep time="25.00">
        <vehicle id="background.0" x="219.80" y="-1.60" angle="90.00" type="human" speed="12.87" pos="219.80" lane="e0_0" slope="0.00"/>
        <vehicle id="background.1" x="56.55" y="-1.60" angle="90.00" type="human" speed="12.96" pos="56.55" lane="e0_0" slope="0.00"/>
    </timestep>
    <timestep time="25.50">
        <vehicle id="background.0" x="226.27" y="-1.60" angle="90.00" type="human" speed="12.94" pos="226.27" lane="e0_0" slope="0.00"/>
        <vehicle id="background.1" x="62.80" y="-1.60" angle="90.00" type="human" speed="12.51" pos="62.80" lane="e0_0" slope="0.00"/>
    </timestep>
    <timestep time="26.00">
        <vehicle id="background.0" x="232.80" y="-1.60" angle="90.00" type="human" speed="13.06" pos="232.80" lane="e0_0" slope="0.00"/>
        <vehicle id="background.1" x="69.19" y="-1.60" angle="90.00" type="human" speed="12.79" pos="69.19" lane="e0_0" slope="0.00"/>
    </timestep>
    <timestep time="26.50">
        <vehicle id="background.0" x="239.29" y="-1.60" angle="90.00" type="human" speed="12.97" pos="239.29" lane="e0_0" slope="0.00"/>
        <vehicle id="background.1" x="75.55" y="-1.60" angle="90.00" type="human" speed="12.72" pos="75.55" lane="e0_0" slope="0.00"/>
    </timestep>
    <timestep time="27.00">
        <vehicle id="background.0" x="245.77" y="-1.60" angle="90.00" type="human" speed="12.96" pos="245.77" lane="e0_0" slope="0.00"/>
        <vehicle id="background.1" x="81.99" y="-1.60" angle="90.00" type="human" speed="12.87" pos="81.99" lane="e0_0" slope="0.00"/>
    </timestep>
    <timestep time="27.50">
        <vehicle id="background.0" x="252.37" y="-1.60" angle="90.00" type="human" speed="13.20" pos="252.37" lane="e0_0" slope="0.00"/>
        <vehicle id="background.1" x="88.40" y="-1.60" angle="90.00" type="human" speed="12.83" pos="88.40" lane="e0_0" slope="0.00"/>
    </timestep>
    <timestep time="28.00">
        <vehicle id="background.0" x="258.87" y="-1.60" angle="90.00" type="human" speed="13.01" pos="258.87" lane="e0_0" slope="0.00"/>
        <vehicle id="background.1" x="94.76" y="-1.60" angle="90.00" type="human" speed="12.71" pos="94.76" lane="e0_0" slope="0.00"/>
    </timestep>
    <timestep time="28.50">
        <vehicle id="background.0" x="265.40" y="-1.60" angle="90.00" type="human" speed="13.05" pos="265.40" lane="e0_0" slope="0.00"/>
        <vehicle id="background.1" x="101.08" y="-1.60" angle="90.00" type="human" speed="12.63" pos="101.08" lane="e0_0" slope="0.00"/>
    </timestep>
    <timestep time="29.00">
        <vehicle id="background.0" x="271.98" y="-1.60" angle="90.00" type="human" speed="13.16" pos="271.98" lane="e0_0" slope="0.00"/>
        <vehicle id="background.1" x="107.33" y="-1.60" angle="90.00" type="human" speed="12.51" pos="107.33" lane="e0_0" slope="0.00"/>
    </timestep>
    <timestep time="29.50">
        <vehicle id="background.0" x="278.54" y="-1.60" angle="90.00" type="human" speed="13.12" pos="278.54" lane="e0_0" slope="0.00"/>
        <vehicle id="background.1" x="113.67" y="-1.60" angle="90.00" type="human" speed="12.68" pos="113.67" lane="e0_0" slope="0.00"/>
    </timestep>
    <timestep time="30.00">
        <vehicle id="background.0" x="285.17" y="-1.60" angle="90.00" type="human" speed="13.27" pos="285.17" lane="e0_0" slope="0.00"/>
        <vehicle id="background.1" x="120.06" y="-1.60" angle="90.00" type="human" speed="12.78" pos="120.06" lane="e0_0" slope="0.00"/>
        <vehicle id="background.2" x="5.10" y="-1.60" angle="90.00" type="human" speed="12.89" pos="5.10" lane="e0_0" slope="0.00"/>
    </timestep>
    <timestep time="30.50">
        <vehicle id="background.0" x="291.62" y="-1.60" angle="90.00" type="human" speed="12.89" pos="291.62" lane="e0_0" slope="0.00"/>
        <vehicle id="background.1" x="126.47" y="-1.60" angle="90.00" type="human" speed="12.81" pos="126.47" lane="e0_0" slope="0.00"/>
        <vehicle id="background.2" x="11.30" y="-1.60" angle="90.00" type="human" speed="12.40" pos="11.30" lane="e0_0" slope="0.00"/>
    </timestep>
    <timestep time="31.00">
        <vehicle id="background.0" x="298.06" y="-1.60" angle="90.00" type="human" speed="12.89" pos="298.06" lane="e0_0" slope="0.00"/>
        <vehicle id="background.1" x="132.74" y="-1.60" angle="90.00" type="human" speed="12.54" pos="132.74" lane="e0_0" slope="0.00"/>
        <vehicle id="background.2" x="17.67" y="-1.60" angle="90.00" type="human" speed="12.75" pos="17.67" lane="e0_0" slope="0.00"/>
        <vehicle id="background.3" x="5.10" y="-1.60" angle="90.00" type="human" speed="10.44" pos="5.10" lane="e0_0" slope="0.00"/>
    </timestep>
    <timestep time="31.50">
        <vehicle id="background.0" x="304.58" y="-1.60" angle="90.00" type="human" speed="13.25" pos="4.58" lane="e1_0" slope="0.00"/>
        <vehicle id="background.1" x="139.10" y="-1.60" angle="90.00" type="human" speed="12.71" pos="139.10" lane="e0_0" slope="0.00"/>
        <vehicle id="background.2" x="24.04" y="-1.60" angle="90.00" type="human" speed="12.73" pos="24.04" lane="e0_0" slope="0.00"/>
        <vehicle id="background.3" x="10.08" y="-1.60" angle="90.00" type="human" speed="9.96" pos="10.08" lane="e0_0" slope="0.00"/>
    </timestep>
    <timestep time="32.00">
        <vehicle id="background.0" x="311.17" y="-1.60" angle="90.00" type="human" speed="13.16" pos="11.17" lane="e1_0" slope="0.00"/>
        <vehicle id="background.1" x="145.36" y="-1.60" angle="90.00" type="human" speed="12.53" pos="145.36" lane="e0_0" slope="0.00"/>
        <vehicle id="background.2" x="30.44" y="-1.60" angle="90.00" type="human" speed="12.80" pos="30.44" lane="e0_0" slope="0.00"/>
        <vehicle id="background.3" x="15.51" y="-1.60" angle="90.00" type="human" speed="10.86" pos="15.51" lane="e0_0" slope="0.00"/>
    </timestep>
    <timestep time="32.50">
        <vehicle id="background.0" x="317.71" y="-1.60" angle="90.00" type="human" speed="13.09" pos="17.71" lane="e1_0" slope="0.00"/>
        <vehicle id="background.1" x="151.67" y="-1.60" angle="90.00" type="human" speed="12.62" pos="151.67" lane="e0_0" slope="0.00"/>
        <vehicle id="background.2" x="36.70" y="-1.60" angle="90.00" type="human" speed="12.53" pos="36.70" lane="e0_0" slope="0.00"/>
        <vehicle id="background.3" x="20.96" y="-1.60" angle="90.00" type="human" speed="10.90" pos="20.96" lane="e0_0" slope="0.00"/>
    </timestep>
    <timestep time="33.00">
        <vehicle id="background.0" x="324.35" y="-1.60" angle="90.00" type="human" speed="13.27" pos="24.35" lane="e1_0" slope="0.00"/>
        <vehicle id="background.1" x="158.02" y="-1.60" angle="90.00" type="human" speed="12.69" pos="158.02" lane="e0_0" slope="0.00"/>
        <vehicle id="background.2" x="43.14" y="-1.60" angle="90.00" type="human" speed="12.87" pos="43.14" lane="e0_0" slope="0.00"/>
        <vehicle id="background.3" x="26.59" y="-1.60" angle="90.00" type="human" speed="11.26" pos="26.59" lane="e0_0" slope="0.00"/>
    </timestep>
    <timestep time="33.50">
        <vehicle id="background.0" x="330.80" y="-1.60" angle="90.00" type="human" speed="12.91" pos="30.80" lane="e1_0" slope="0.00"/>
        <vehicle id="background.1" x="164.27" y="-1.60" angle="90.00" type="human" speed="12.50" pos="164.27" lane="e0_0" slope="0.00"/>
        <vehicle id="background.2" x="49.37" y="-1.60" angle="90.00" type="human" speed="12.46" pos="49.37" lane="e0_0" slope="0.00"/>
        <vehicle id="background.3" x="32.39" y="-1.60" angle="90.00" type="human" speed="11.59" pos="32.39" lane="e0_0" slope="0.00"/>
    </timestep>
    <timestep time="34.00">
        <vehicle id="background.0" x="337.30" y="-1.60" angle="90.00" type="human" speed="13.00" pos="37.30" lane="e1_0" slope="0.00"/>
        <vehicle id="background.1" x="170.64" y="-1.60" angle="90.00" type="human" speed="12.74" pos="170.64" lane="e0_0" slope="0.00"/>
        <vehicle id="background.2" x="55.64" y="-1.60" angle="90.00" type="human" speed="12.54" pos="55.64" lane="e0_0" slope="0.00"/>
        <vehicle id="background.3" x="38.09" y="-1.60" angle="90.00" type="human" speed="11.42" pos="38.09" lane="e0_0" slope="0.00"/>
    </timestep>
    <timestep time="34.50">
        <vehicle id="background.0" x="343.91" y="-1.60" angle="90.00" type="human" speed="13.22" pos="43.91" lane="e1_0" slope="0.00"/>
        <vehicle id="background.1" x="177.06" y="-1.60" angle="90.00" type="human" speed="12.85" pos="177.06" lane="e0_0" slope="0.00"/>
        <vehicle id="background.2" x="61.99" y="-1.60" angle="90.00" type="human" speed="12.70" pos="61.99" lane="e0_0" slope="0.00"/>
        <vehicle id="background.3" x="43.95" y="-1.60" angle="90.00" type="human" speed="11.70" pos="43.95" lane="e0_0" slope="0.00"/>
    </timestep>
    <timestep time="35.00">
        <vehicle id="background.1" x="183.36" y="-1.60" angle="90.00" type="human" speed="12.60" pos="183.36" lane="e0_0" slope="0.00"/>
        <vehicle id="background.2" x="68.36" y="-1.60" angle="90.00" type="human" speed="12.74" pos="68.36" lane="e0_0" slope="0.00"/>
        <vehicle id="background.3" x="49.75" y="-1.60" angle="90.00" type="human" speed="11.61" pos="49.75" lane="e0_0" slope="0.00"/>
    </timestep>
    <timestep time="35.50">
        <vehicle id="background.1" x="189.82" y="-1.60" angle="90.00" type="human" speed="12.92" pos="189.82" lane="e0_0" slope="0.00"/>
        <vehicle id="background.2" x="74.69" y="-1.60" angle="90.00" type="human" speed="12.67" pos="74.69" lane="e0_0" slope="0.00"/>
        <vehicle id="background.3" x="55.64" y="-1.60" angle="90.00" type="human" speed="11.79" pos="55.64" lane="e0_0" slope="0.00"/>
    </timestep>
    <timestep time="36.00">
        <vehicle id="background.1" x="196.24" y="-1.60" angle="90.00" type="human" speed="12.84" pos="196.24" lane="e0_0" slope="0.00"/>
        <vehicle id="background.2" x="81.14" y="-1.60" angle="90.00" type="human" speed="12.89" pos="81.14" lane="e0_0" slope="0.00"/>
        <vehicle id="background.3" x="61.65" y="-1.60" angle="90.00" type="human" speed="12.01" pos="61.65" lane="e0_0" slope="0.00"/>
    </timestep>
    <timestep time="36.50">
        <vehicle id="background.1" x="202.51" y="-1.60" angle="90.00" type="human" speed="12.54" pos="202.51" lane="e0_0" slope="0.00"/>
        <vehicle id="background.2" x="87.38" y="-1.60" angle="90.00" type="human" speed="12.47" pos="87.38" lane="e0_0" slope="0.00"/>
        <vehicle id="background.3" x="67.87" y="-1.60" angle="90.00" type="human" speed="12.46" pos="67.87" lane="e0_0" slope="0.00"/>
    </timestep>
    <timestep time="37.00">
        <vehicle id="background.1" x="208.92" y="-1.60" angle="90.00" type="human" speed="12.83" pos="208.92" lane="e0_0" slope="0.00"/>
        <vehicle id="background.2" x="93.59" y="-1.60" angle="90.00" type="human" speed="12.43" pos="93.59" lane="e0_0" slope="0.00"/>
        <vehicle id="background.3" x="73.91" y="-1.60" angle="90.00" type="human" speed="12.07" pos="73.91" lane="e0_0" slope="0.00"/>
    </timestep>
    <timestep time="37.50">
        <vehicle id="background.1" x="215.31" y="-1.60" angle="90.00" type="human" speed="12.79" pos="215.31" lane="e0_0" slope="0.00"/>
        <vehicle id="background.2" x="99.83" y="-1.60" angle="90.00" type="human" speed="12.47" pos="99.83" lane="e0_0" slope="0.00"/>
        <vehicle id="background.3" x="79.97" y="-1.60" angle="90.00" type="human" speed="12.12" pos="79.97" lane="e0_0" slope="0.00"/>
    </timestep>
    <timestep time="38.00">
        <vehicle id="background.1" x="221.69" y="-1.60" angle="90.00" type="human" speed="12.76" pos="221.69" lane="e0_0" slope="0.00"/>
        <vehicle id="background.2" x="106.16" y="-1.60" angle="90.00" type="human" speed="12.67" pos="106.16" lane="e0_0" slope="0.00"/>
        <vehicle id="background.3" x="86.18" y="-1.60" angle="90.00" type="human" speed="12.41" pos="86.18" lane="e0_0" slope="0.00"/>
    </timestep>
    <timestep time="38.50">
        <vehicle id="background.1" x="227.96" y="-1.60" angle="90.00" type="human" speed="12.53" pos="227.96" lane="e0_0" slope="0.00"/>
        <vehicle id="background.2" x="112.51" y="-1.60" angle="90.00" type="human" speed="12.71" pos="112.51" lane="e0_0" slope="0.00"/>
        <vehicle id="background.3" x="92.33" y="-1.60" angle="90.00" type="human" speed="12.29" pos="92.33" lane="e0_0" slope="0.00"/>
    </timestep>
    <timestep time="39.00">
        <vehicle id="background.1" x="234.23" y="-1.60" angle="90.00" type="human" speed="12.53" pos="234.23" lane="e0_0" slope="0.00"/>
        <vehicle id="background.2" x="118.90" y="-1.60" angle="90.00" type="human" speed="12.77" pos="118.90" lane="e0_0" slope="0.00"/>
        <vehicle id="background.3" x="98.43" y="-1.60" angle="90.00" type="human" speed="12.21" pos="98.43" lane="e0_0" slope="0.00"/>
    </timestep>
    <timestep time="39.50">
        <vehicle id="background.1" x="240.55" y="-1.60" angle="90.00" type="human" speed="12.65" pos="240.55" lane="e0_0" slope="0.00"/>
        <vehicle id="background.2" x="125.32" y="-1.60" angle="90.00" type="human" speed="12.84" pos="125.32" lane="e0_0" slope="0.00"/>
        <vehicle id="background.3" x="104.74" y="-1.60" angle="90.00" type="human" speed="12.62" pos="104.74" lane="e0_0" slope="0.00"/>
    </timestep>
    <timestep time="40.00">
        <vehicle id="background.1" x="246.93" y="-1.60" angle="90.00" type="human" speed="12.77" pos="246.93" lane="e0_0" slope="0.00"/>
        <vehicle id="background.2" x="131.71" y="-1.60" angle="90.00" type="human" speed="12.78" pos="131.71" lane="e0_0" slope="0.00"/>
        <vehicle id="background.3" x="111.06" y="-1.60" angle="90.00" type="human" speed="12.65" pos="111.06" lane="e0_0" slope="0.00"/>
    </timestep>
    <timestep time="40.50">
        <vehicle id="background.1" x="253.39" y="-1.60" angle="90.00" type="human" speed="12.91" pos="253.39" lane="e0_0" slope="0.00"/>
        <vehicle id="background.2" x="138.06" y="-1.60" angle="90.00" type="human" speed="12.69" pos="138.06" lane="e0_0" slope="0.00"/>
        <vehicle id="background.3" x="117.39" y="-1.60" angle="90.00" type="human" speed="12.66" pos="117.39" lane="e0_0" slope="0.00"/>
    </timestep>
    <timestep time="41.00">
        <vehicle id="background.1" x="259.68" y="-1.60" angle="90.00" type="human" speed="12.59" pos="259.68" lane="e0_0" slope="0.00"/>
        <vehicle id="background.2" x="144.30" y="-1.60" angle="90.00" type="human" speed="12.48" pos="144.30" lane="e0_0" slope="0.00"/>
        <vehicle id="background.3" x="123.76" y="-1.60" angle="90.00" type="human" speed="12.74" pos="123.76" lane="e0_0" slope="0.00"/>
    </timestep>
    <timestep time="41.50">
        <vehicle id="background.1" x="266.02" y="-1.60" angle="90.00" type="human" speed="12.67" pos="266.02" lane="e0_0" slope="0.00"/>
        <vehicle id="background.2" x="150.69" y="-1.60" angle="90.00" type="human" speed="12.79" pos="150.69" lane="e0_0" slope="0.00"/>
        <vehicle id="background.3" x="129.83" y="-1.60" angle="90.00" type="human" speed="12.14" pos="129.83" lane="e0_0" slope="0.00"/>
    </timestep>
    <timestep time="42.00">
        <vehicle id="background.1" x="272.50" y="-1.60" angle="90.00" type="human" speed="12.97" pos="272.50" lane="e0_0" slope="0.00"/>
        <vehicle id="background.2" x="157.01" y="-1.60" angle="90.00" type="human" speed="12.63" pos="157.01" lane="e0_0" slope="0.00"/>
        <vehicle id="background.3" x="136.28" y="-1.60" angle="90.00" type="human" speed="12.90" pos="136.28" lane="e0_0" slope="0.00"/>
    </timestep>
    <timestep time="42.50">
        <vehicle id="background.1" x="278.93" y="-1.60" angle="90.00" type="human" speed="12.86" pos="278.93" lane="e0_0" slope="0.00"/>
        <vehicle id="background.2" x="163.23" y="-1.60" angle="90.00" type="human" speed="12.44" pos="163.23" lane="e0_0" slope="0.00"/>
        <vehicle id="background.3" x="142.68" y="-1.60" angle="90.00" type="human" speed="12.79" pos="142.68" lane="e0_0" slope="0.00"/>
    </timestep>
    <timestep time="43.00">
        <vehicle id="background.1" x="285.25" y="-1.60" angle="90.00" type="human" speed="12.64" pos="285.25" lane="e0_0" slope="0.00"/>
        <vehicle id="background.2" x="169.50" y="-1.60" angle="90.00" type="human" speed="12.55" pos="169.50" lane="e0_0" slope="0.00"/>
        <vehicle id="background.3" x="148.74" y="-1.60" angle="90.00" type="human" speed="12.12" pos="148.74" lane="e0_0" slope="0.00"/>
    </timestep>
    <timestep time="43.50">
        <vehicle id="background.1" x="291.67" y="-1.60" angle="90.00" type="human" speed="12.84" pos="291.67" lane="e0_0" slope="0.00"/>
        <vehicle id="background.2" x="175.74" y="-1.60" angle="90.00" type="human" speed="12.48" pos="175.74" lane="e0_0" slope="0.00"/>
        <vehicle id="background.3" x="154.92" y="-1.60" angle="90.00" type="human" speed="12.37" pos="154.92" lane="e0_0" slope="0.00"/>
    </timestep>
    <timestep time="44.00">
        <vehicle id="background.1" x="298.07" y="-1.60" angle="90.00" type="human" speed="12.80" pos="298.07" lane="e0_0" slope="0.00"/>
        <vehicle id="background.2" x="182.14" y="-1.60" angle="90.00" type="human" speed="12.80" pos="182.14" lane="e0_0" slope="0.00"/>
        <vehicle id="background.3" x="161.23" y="-1.60" angle="90.00" type="human" speed="12.61" pos="161.23" lane="e0_0" slope="0.00"/>
    </timestep>
    <timestep time="44.50">
        <vehicle id="background.1" x="304.35" y="-1.60" angle="90.00" type="human" speed="12.75" pos="4.35" lane="e1_0" slope="0.00"/>
        <vehicle id="background.2" x="188.46" y="-1.60" angle="90.00" type="human" speed="12.63" pos="188.46" lane="e0_0" slope="0.00"/>
        <vehicle id="background.3" x="167.71" y="-1.60" angle="90.00" type="human" speed="12.97" pos="167.71" lane="e0_0" slope="0.00"/>
    </timestep>
    <timestep time="45.00">
        <vehicle id="background.1" x="310.71" y="-1.60" angle="90.00" type="human" speed="12.72" pos="10.71" lane="e1_0" slope="0.00"/>
        <vehicle id="background.2" x="194.71" y="-1.60" angle="90.00" type="human" speed="12.51" pos="194.71" lane="e0_0" slope="0.00"/>
        <vehicle id="background.3" x="174.08" y="-1.60" angle="90.00" type="human" speed="12.73" pos="174.08" lane="e0_0" slope="0.00"/>
    </timestep>
    <timestep time="45.50">
        <vehicle id="background.1" x="317.05" y="-1.60" angle="90.00" type="human" speed="12.68" pos="17.05" lane="e1_0" slope="0.00"/>
        <vehicle id="background.2" x="200.98" y="-1.60" angle="90.00" type="human" speed="12.55" pos="200.98" lane="e0_0" slope="0.00"/>
        <vehicle id="background.3" x="180.38" y="-1.60" angle="90.00" type="human" speed="12.60" pos="180.38" lane="e0_0" slope="0.00"/>
    </timestep>
    <timestep time="46.00">
        <vehicle id="background.1" x="323.53" y="-1.60" angle="90.00" type="human" speed="12.95" pos="23.53" lane="e1_0" slope="0.00"/>
        <vehicle id="background.2" x="207.35" y="-1.60" angle="90.00" type="human" speed="12.73" pos="207.35" lane="e0_0" slope="0.00"/>
        <vehicle id="background.3" x="186.67" y="-1.60" angle="90.00" type="human" speed="12.59" pos="186.67" lane="e0_0" slope="0.00"/>
    </timestep>
    <timestep time="46.50">
        <vehicle id="background.1" x="329.95" y="-1.60" angle="90.00" type="human" speed="12.84" pos="29.95" lane="e1_0" slope="0.00"/>
        <vehicle id="background.2" x="213.63" y="-1.60" angle="90.00" type="human" speed="12.57" pos="213.63" lane="e0_0" slope="0.00"/>
        <vehicle id="background.3" x="192.94" y="-1.60" angle="90.00" type="human" speed="12.54" pos="192.94" lane="e0_0" slope="0.00"/>
    </timestep>
    <timestep time="47.00">
        <vehicle id="background.1" x="336.35" y="-1.60" angle="90.00" type="human" speed="12.80" pos="36.35" lane="e1_0" slope="0.00"/>
        <vehicle id="background.2" x="220.07" y="-1.60" angle="90.00" type="human" speed="12.88" pos="220.07" lane="e0_0" slope="0.00"/>
        <vehicle id="background.3" x="199.27" y="-1.60" angle="90.00" type="human" speed="12.66" pos="199.27" lane="e0_0" slope="0.00"/>
    </timestep>
    <timestep time="47.50">
        <vehicle id="background.1" x="342.64" y="-1.60" angle="90.00" type="human" speed="12.58" pos="42.64" lane="e1_0" slope="0.00"/>
        <vehicle id="background.2" x="226.43" y="-1.60" angle="90.00" type="human" speed="12.72" pos="226.43" lane="e0_0" slope="0.00"/>
        <vehicle id="background.3" x="205.68" y="-1.60" angle="90.00" type="human" speed="12.82" pos="205.68" lane="e0_0" slope="0.00"/>
    </timestep>
    <timestep time="48.00">
        <vehicle id="background.1" x="349.05" y="-1.60" angle="90.00" type="human" speed="12.82" pos="49.05" lane="e1_0" slope="0.00"/>
        <vehicle id="background.2" x="232.82" y="-1.60" angle="90.00" type="human" speed="12.78" pos="232.82" lane="e0_0" slope="0.00"/>
        <vehicle id="background.3" x="211.92" y="-1.60" angle="90.00" type="human" speed="12.47" pos="211.92" lane="e0_0" slope="0.00"/>
    </timestep>
    <timestep time="48.50">
        <vehicle id="background.2" x="239.24" y="-1.60" angle="90.00" type="human" speed="12.84" pos="239.24" lane="e0_0" slope="0.00"/>
        <vehicle id="background.3" x="218.20" y="-1.60" angle="90.00" type="human" speed="12.56" pos="218.20" lane="e0_0" slope="0.00"/>
    </timestep>
    <timestep time="49.00">