<?xml version="1.0" encoding="UTF-8"?>

<!-- generated on 2026-05-14 17:06:00 by Eclipse SUMO sumo Version 1.24.0
<sumoConfiguration xmlns:xsi="http://www.w3.org/2001/XMLSchema-instance" xsi:noNamespaceSchemaLocation="http://sumo.dlr.de/xsd/sumoConfiguration.xsd">

    <input>
        <net-file value="scenarios/simple_arterial/simple_arterial.net.xml"/>
        <route-files value="scenarios/simple_arterial/simple_arterial_glosa.rou.xml"/>
        <additional-files value="scenarios/simple_arterial/simple_arterial.tls.xml"/>
    </input>

    <output>
        <fcd-output value="runs/fcd_expert_glosa/episode_00034_seed_76.fcd.xml"/>
    </output>

    <time>
        <begin value="0"/>
        <end value="900"/>
        <step-length value="0.5"/>
    </time>

    <report>
        <no-warnings value="true"/>
    </report>

    <traci_server>
        <remote-port value="37703"/>
    </traci_server>

    <random_number>
        <seed value="76"/>
    </random_number>

</sumoConfiguration>
-->

<fcd-export xmlns:xsi="http://www.w3.org/2001/XMLSchema-instance" xsi:noNamespaceSchemaLocation="http://sumo.dlr.de/xsd/fcd_file.xsd">
    <timestep time="0.00"/>
    <timestep time="0.50"/>
    <timestep time="1.00"/>
    <timestep time="1.50">
        <vehicle id="background.0" x="5.10" y="-1.60" angle="90.00" type="human" speed="11.17" pos="5.10" lane="e0_0" slope="0.00"/>
    </timestep>
    <timestep time="2.00">
        <vehicle id="background.0" x="10.46" y="-1.60" angle="90.00" type="human" speed="10.71" pos="10.46" lane="e0_0" slope="0.00"/>
    </timestep>
    <timestep time="2.50">
        <vehicle id="background.0" x="16.03" y="-1.60" angle="90.00" type="human" speed="11.15" pos="16.03" lane="e0_0" slope="0.00"/>
    </timestep>
    <timestep time="3.00">
        <vehicle id="background.0" x="21.46" y="-1.60" angle="90.00" type="human" speed="10.85" pos="21.46" lane="e0_0" slope="0.00"/>
    </timestep>
    <timestep time="3.50">
        <vehicle id="background.0" x="26.95" y="-1.60" angle="90.00" type="human" speed="10.99" pos="26.95" lane="e0_0" slope="0.00"/>
    </timestep>
    <timestep time="4.00">
        <vehicle id="background.0" x="32.35" y="-1.60" angle="90.00" type="human" speed="10.79" pos="32.35" lane="e0_0" slope="0.00"/>
    </timestep>
    <timestep time="4.50">
        <vehicle id="background.0" x="37.93" y="-1.60" angle="90.00" type="human" speed="11.15" pos="37.93" lane="e0_0" slope="0.00"/>
    </timestep>
    <timestep time="5.00">
        <vehicle id="background.0" x="43.48" y="-1.60" angle="90.00" type="human" speed="11.10" pos="43.48" lane="e0_0" slope="0.00"/>
    </timestep>
    <timestep time="5.50">
        <vehicle id="background.0" x="48.86" y="-1.60" angle="90.00" type="human" speed="10.77" pos="48.86" lane="e0_0" slope="0.00"/>
    </timestep>
    <timestep time="6.00">
        <vehicle id="background.0" x="54.42" y="-1.60" angle="90.00" type="human" speed="11.13" pos="54.42" lane="e0_0" slope="0.00"/>
    </timestep>
    <timestep time="6.50">
        <vehicle id="background.0" x="59.92" y="-1.60" angle="90.00" type="human" speed="11.00" pos="59.92" lane="e0_0" slope="0.00"/>
    </timestep>
    <timestep time="7.00">
        <vehicle id="background.0" x="65.31" y="-1.60" angle="90.00" type="human" speed="10.78" pos="65.31" lane="e0_0" slope="0.00"/>
    </timestep>
    <timestep time="7.50">
        <vehicle id="background.0" x="70.67" y="-1.60" angle="90.00" type="human" speed="10.73" pos="70.67" lane="e0_0" slope="0.00"/>
    </timestep>
    <timestep time="8.00">
        <vehicle id="background.0" x="76.18" y="-1.60" angle="90.00" type="human" speed="11.01" pos="76.18" lane="e0_0" slope="0.00"/>
    </timestep>
    <timestep time="8.50">
        <vehicle id="background.0" x="81.57" y="-1.60" angle="90.00" type="human" speed="10.79" pos="81.57" lane="e0_0" slope="0.00"/>
    </timestep>
    <timestep time="9.00">
        <vehicle id="background.0" x="87.02" y="-1.60" angle="90.00" type="human" speed="10.90" pos="87.02" lane="e0_0" slope="0.00"/>
    </timestep>
    <timestep time="9.50">
        <vehicle id="background.0" x="92.44" y="-1.60" angle="90.00" type="human" speed="10.82" pos="92.44" lane="e0_0" slope="0.00"/>
    </timestep>
    <timestep time="10.00">
        <vehicle id="background.0" x="97.96" y="-1.60" angle="90.00" type="human" speed="11.05" pos="97.96" lane="e0_0" slope="0.00"/>
    </timestep>
    <timestep time="10.50">
        <vehicle id="background.0" x="103.42" y="-1.60" angle="90.00" type="human" speed="10.92" pos="103.42" lane="e0_0" slope="0.00"/>
        <vehicle id="background.1" x="5.10" y="-1.60" angle="90.00" type="human" speed="12.54" pos="5.10" lane="e0_0" slope="0.00"/>
    </timestep>
    <timestep time="11.00">
        <vehicle id="background.0" x="108.87" y="-1.60" angle="90.00" type="human" speed="10.90" pos="108.87" lane="e0_0" slope="0.00"/>
        <vehicle id="background.1" x="11.15" y="-1.60" angle="90.00" type="human" speed="12.11" pos="11.15" lane="e0_0" slope="0.00"/>
    </timestep>
    <timestep time="11.50">
        <vehicle id="background.0" x="114.36" y="-1.60" angle="90.00" type="human" speed="10.97" pos="114.36" lane="e0_0" slope="0.00"/>
        <vehicle id="background.1" x="17.32" y="-1.60" angle="90.00" type="human" speed="12.33" pos="17.32" lane="e0_0" slope="0.00"/>
    </timestep>
    <timestep time="12.00">
        <vehicle id="background.0" x="119.76" y="-1.60" angle="90.00" type="human" speed="10.81" pos="119.76" lane="e0_0" slope="0.00"/>
        <vehicle id="background.1" x="23.54" y="-1.60" angle="90.00" type="human" speed="12.45" pos="23.54" lane="e0_0" slope="0.00"/>
    </timestep>
    <timestep time="12.50">
        <vehicle id="background.0" x="125.14" y="-1.60" angle="90.00" type="human" speed="10.75" pos="125.14" lane="e0_0" slope="0.00"/>
        <vehicle id="background.1" x="29.63" y="-1.60" angle="90.00" type="human" speed="12.17" pos="29.63" lane="e0_0" slope="0.00"/>
    </timestep>
    <timestep time="13.00">
        <vehicle id="background.0" x="130.58" y="-1.60" angle="90.00" type="human" speed="10.88" pos="130.58" lane="e0_0" slope="0.00"/>
        <vehicle id="background.1" x="35.67" y="-1.60" angle="90.00" type="human" speed="12.08" pos="35.67" lane="e0_0" slope="0.00"/>
    </timestep>
    <timestep time="13.50">
        <vehicle id="background.0" x="136.09" y="-1.60" angle="90.00" type="human" speed="11.02" pos="136.09" lane="e0_0" slope="0.00"/>
        <vehicle id="background.1" x="41.76" y="-1.60" angle="90.00" type="human" speed="12.18" pos="41.76" lane="e0_0" slope="0.00"/>
    </timestep>
    <timestep time="14.00">
        <vehicle id="background.0" x="141.60" y="-1.60" angle="90.00" type="human" speed="11.03" pos="141.60" lane="e0_0" slope="0.00"/>
        <vehicle id="background.1" x="47.79" y="-1.60" angle="90.00" type="human" speed="12.06" pos="47.79" lane="e0_0" slope="0.00"/>
    </timestep>
    <timestep time="14.50">
        <vehicle id="background.0" x="147.01" y="-1.60" angle="90.00" type="human" speed="10.82" pos="147.01" lane="e0_0" slope="0.00"/>
        <vehicle id="background.1" x="54.05" y="-1.60" angle="90.00" type="human" speed="12.51" pos="54.05" lane="e0_0" slope="0.00"/>
    </timestep>
    <timestep time="15.00">
        <vehicle id="background.0" x="152.49" y="-1.60" angle="90.00" type="human" speed="10.96" pos="152.49" lane="e0_0" slope="0.00"/>
        <vehicle id="background.1" x="60.14" y="-1.60" angle="90.00" type="human" speed="12.18" pos="60.14" lane="e0_0" slope="0.00"/>
    </timestep>
    <timestep time="15.50">
        <vehicle id="background.0" x="158.06" y="-1.60" angle="90.00" type="human" speed="11.14" pos="158.06" lane="e0_0" slope="0.00"/>
        <vehicle id="background.1" x="66.33" y="-1.60" angle="90.00" type="human" speed="12.39" pos="66.33" lane="e0_0" slope="0.00"/>
    </timestep>
    <timestep time="16.00">
        <vehicle id="background.0" x="163.46" y="-1.60" angle="90.00" type="human" speed="10.80" pos="163.46" lane="e0_0" slope="0.00"/>
        <vehicle id="background.1" x="72.39" y="-1.60" angle="90.00" type="human" speed="12.11" pos="72.39" lane="e0_0" slope="0.00"/>
    </timestep>
    <timestep time="16.50">
        <vehicle id="background.0" x="168.93" y="-1.60" angle="90.00" type="human" speed="10.94" pos="168.93" lane="e0_0" slope="0.00"/>
        <vehicle id="background.1" x="78.42" y="-1.60" angle="90.00" type="human" speed="12.07" pos="78.42" lane="e0_0" slope="0.00"/>
    </timestep>
    <timestep time="17.00">
        <vehicle id="background.0" x="174.47" y="-1.60" angle="90.00" type="human" speed="11.08" pos="174.47" lane="e0_0" slope="0.00"/>
        <vehicle id="background.1" x="84.45" y="-1.60" angle="90.00" type="human" speed="12.05" pos="84.45" lane="e0_0" slope="0.00"/>
    </timestep>
    <timestep time="17.50">
        <vehicle id="background.0" x="180.05" y="-1.60" angle="90.00" type="human" speed="11.15" pos="180.05" lane="e0_0" slope="0.00"/>
        <vehicle id="background.1" x="90.55" y="-1.60" angle="90.00" type="human" speed="12.21" pos="90.55" lane="e0_0" slope="0.00"/>
    </timestep>
    <timestep time="18.00">
        <vehicle id="background.0" x="185.56" y="-1.60" angle="90.00" type="human" speed="11.02" pos="185.56" lane="e0_0" slope="0.00"/>
        <vehicle id="background.1" x="96.71" y="-1.60" angle="90.00" type="human" speed="12.32" pos="96.71" lane="e0_0" slope="0.00"/>
    </timestep>
    <timestep time="18.50">
        <vehicle id="background.0" x="191.13" y="-1.60" angle="90.00" type="human" speed="11.14" pos="191.13" lane="e0_0" slope="0.00"/>
        <vehicle id="background.1" x="102.83" y="-1.60" angle="90.00" type="human" speed="12.24" pos="102.83" lane="e0_0" slope="0.00"/>
    </timestep>
    <timestep time="19.00">
        <vehicle id="background.0" x="196.53" y="-1.60" angle="90.00" type="human" speed="10.79" pos="196.53" lane="e0_0" slope="0.00"/>
        <vehicle id="background.1" x="108.87" y="-1.60" angle="90.00" type="human" speed="12.08" pos="108.87" lane="e0_0" slope="0.00"/>
    </timestep>
    <timestep time="19.50">
        <vehicle id="background.0" x="202.09" y="-1.60" angle="90.00" type="human" speed="11.14" pos="202.09" lane="e0_0" slope="0.00"/>
        <vehicle id="background.1" x="115.13" y="-1.60" angle="90.00" type="human" speed="12.51" pos="115.13" lane="e0_0" slope="0.00"/>
    </timestep>
    <timestep time="20.00">
        <vehicle id="background.0" x="207.57" y="-1.60" angle="90.00" type="human" speed="10.95" pos="207.57" lane="e0_0" slope="0.00"/>
        <vehicle id="background.1" x="121.32" y="-1.60" angle="90.00" type="human" speed="12.38" pos="121.32" lane="e0_0" slope="0.00"/>
    </timestep>
    <timestep time="20.50">
        <vehicle id="background.0" x="213.07" y="-1.60" angle="90.00" type="human" speed="10.99" pos="213.07" lane="e0_0" slope="0.00"/>
        <vehicle id="background.1" x="127.35" y="-1.60" angle="90.00" type="human" speed="12.08" pos="127.35" lane="e0_0" slope="0.00"/>
    </timestep>
    <timestep time="21.00">
        <vehicle id="background.0" x="218.61" y="-1.60" angle="90.00" type="human" speed="11.09" pos="218.61" lane="e0_0" slope="0.00"/>
        <vehicle id="background.1" x="133.40" y="-1.60" angle="90.00" type="human" speed="12.09" pos="133.40" lane="e0_0" slope="0.00"/>
    </timestep>
    <timestep time="21.50">
        <vehicle id="background.0" x="224.06" y="-1.60" angle="90.00" type="human" speed="10.90" pos="224.06" lane="e0_0" slope="0.00"/>
        <vehicle id="background.1" x="139.51" y="-1.60" angle="90.00" type="human" speed="12.21" pos="139.51" lane="e0_0" slope="0.00"/>
    </timestep>
    <timestep time="22.00">
        <vehicle id="background.0" x="229.54" y="-1.60" angle="90.00" type="human" speed="10.95" pos="229.54" lane="e0_0" slope="0.00"/>
        <vehicle id="background.1" x="145.69" y="-1.60" angle="90.00" type="human" speed="12.37" pos="145.69" lane="e0_0" slope="0.00"/>
    </timestep>
    <timestep time="22.50">
        <vehicle id="background.0" x="235.11" y="-1.60" angle="90.00" type="human" speed="11.15" pos="235.11" lane="e0_0" slope="0.00"/>
        <vehicle id="background.1" x="151.94" y="-1.60" angle="90.00" type="human" speed="12.50" pos="151.94" lane="e0_0" slope="0.00"/>
    </timestep>
    <timestep time="23.00">
        <vehicle id="background.0" x="240.49" y="-1.60" angle="90.00" type="human" speed="10.76" pos="240.49" lane="e0_0" slope="0.00"/>
        <vehicle id="background.1" x="158.08" y="-1.60" angle="90.00" type="human" speed="12.29" pos="158.08" lane="e0_0" slope="0.00"/>
    </timestep>
    <timestep time="23.50">
        <vehicle id="background.0" x="246.01" y="-1.60" angle="90.00" type="human" speed="11.03" pos="246.01" lane="e0_0" slope="0.00"/>
        <vehicle id="background.1" x="164.35" y="-1.60" angle="90.00" type="human" speed="12.54" pos="164.35" lane="e0_0" slope="0.00"/>
    </timestep>
    <timestep time="24.00">
        <vehicle id="background.0" x="251.55" y="-1.60" angle="90.00" type="human" speed="11.09" pos="251.55" lane="e0_0" slope="0.00"/>
        <vehicle id="background.1" x="170.58" y="-1.60" angle="90.00" type="human" speed="12.45" pos="170.58" lane="e0_0" slope="0.00"/>
    </timestep>
    <timestep time="24.50">
        <vehicle id="background.0" x="256.98" y="-1.60" angle="90.00" type="human" speed="10.85" pos="256.98" lane="e0_0" slope="0.00"/>
        <vehicle id="background.1" x="176.73" y="-1.60" angle="90.00" type="human" speed="12.31" pos="176.73" lane="e0_0" slope="0.00"/>
    </timestep>
    <timestep time="25.00">
        <vehicle id="background.0" x="262.53" y="-1.60" angle="90.00" type="human" speed="11.12" pos="262.53" lane="e0_0" slope="0.00"/>
        <vehicle id="background.1" x="182.94" y="-1.60" angle="90.00" type="human" speed="12.41" pos="182.94" lane="e0_0" slope="0.00"/>
    </timestep>
    <timestep time="25.50">
        <vehicle id="background.0" x="268.03" y="-1.60" angle="90.00" type="human" speed="10.99" pos="268.03" lane="e0_0" slope="0.00"/>
        <vehicle id="background.1" x="189.09" y="-1.60" angle="90.00" type="human" speed="12.30" pos="189.09" lane="e0_0" slope="0.00"/>
    </timestep>
    <timestep time="26.00">
        <vehicle id="background.0" x="273.52" y="-1.60" angle="90.00" type="human" speed="10.98" pos="273.52" lane="e0_0" slope="0.00"/>
        <vehicle id="background.1" x="195.19" y="-1.60" angle="90.00" type="human" speed="12.21" pos="195.19" lane="e0_0" slope="0.00"/>
    </timestep>
    <timestep time="26.50">
        <vehicle id="background.0" x="278.99" y="-1.60" angle="90.00" type="human" speed="10.95" pos="278.99" lane="e0_0" slope="0.00"/>
        <vehicle id="background.1" x="201.23" y="-1.60" angle="90.00" type="human" speed="12.07" pos="201.23" lane="e0_0" slope="0.00"/>
    </timestep>
    <timestep time="27.00">
        <vehicle id="background.0" x="284.33" y="-1.60" angle="90.00" type="human" speed="10.68" pos="284.33" lane="e0_0" slope="0.00"/>
        <vehicle id="background.1" x="207.41" y="-1.60" angle="90.00" type="human" speed="12.37" pos="207.41" lane="e0_0" slope="0.00"/>
    </timestep>
    <timestep time="27.50">
        <vehicle id="background.0" x="289.74" y="-1.60" angle="90.00" type="human" speed="10.81" pos="289.74" lane="e0_0" slope="0.00"/>
        <vehicle id="background.1" x="213.50" y="-1.60" angle="90.00" type="human" speed="12.19" pos="213.50" lane="e0_0" slope="0.00"/>
    </timestep>
    <timestep time="28.00">
        <vehicle id="background.0" x="295.24" y="-1.60" angle="90.00" type="human" speed="11.01" pos="295.24" lane="e0_0" slope="0.00"/>
        <vehicle id="background.1" x="219.74" y="-1.60" angle="90.00" type="human" speed="12.48" pos="219.74" lane="e0_0" slope="0.00"/>
    </timestep>
    <timestep time="28.50">
        <vehicle id="background.0" x="300.51" y="-1.60" angle="90.00" type="human" speed="10.72" pos="0.51" lane="e1_0" slope="0.00"/>
        <vehicle id="background.1" x="225.93" y="-1.60" angle="90.00" type="human" speed="12.38" pos="225.93" lane="e0_0" slope="0.00"/>
    </timestep>
    <timestep time="29.00">
        <vehicle id="background.0" x="306.08" y="-1.60" angle="90.00" type="human" speed="11.15" pos="6.08" lane="e1_0" slope="0.00"/>
        <vehicle id="background.1" x="232.01" y="-1.60" angle="90.00" type="human" speed="12.15" pos="232.01" lane="e0_0" slope="0.00"/>
    </timestep>
    <timestep time="29.50">
        <vehicle id="background.0" x="311.44" y="-1.60" angle="90.00" type="human" speed="10.73" pos="11.44" lane="e1_0" slope="0.00"/>
        <vehicle id="background.1" x="238.19" y="-1.60" angle="90.00" type="human" speed="12.37" pos="238.19" lane="e0_0" slope="0.00"/>
    </timestep>
    <timestep time="30.00">
        <vehicle id="background.0" x="316.86" y="-1.60" angle="90.00" type="human" speed="10.83" pos="16.86" lane="e1_0" slope="0.00"/>
        <vehicle id="background.1" x="244.40" y="-1.60" angle="90.00" type="human" speed="12.41" pos="244.40" lane="e0_0" slope="0.00"/>
    </timestep>
    <timestep time="30.50">
        <vehicle id="background.0" x="322.30" y="-1.60" angle="90.00" type="human" speed="10.88" pos="22.30" lane="e1_0" slope="0.00"/>
        <vehicle id="background.1" x="250.53" y="-1.60" angle="90.00" type="human" speed="12.27" pos="250.53" lane="e0_0" slope="0.00"/>
    </timestep>
    <timestep time="31.00">
        <vehicle id="background.0" x="327.68" y="-1.60" angle="90.00" type="human" speed="10.77" pos="27.68" lane="e1_0" slope="0.00"/>
        <vehicle id="background.1" x="256.73" y="-1.60" angle="90.00" type="human" speed="12.39" pos="256.73" lane="e0_0" slope="0.00"/>
    </timestep>
    <timestep time="31.50">
        <vehicle id="background.0" x="333.12" y="-1.60" angle="90.00" type="human" speed="10.87" pos="33.12" lane="e1_0" slope="0.00"/>
        <vehicle id="background.1" x="262.98" y="-1.60" angle="90.00" type="human" speed="12.49" pos="262.98" lane="e0_0" slope="0.00"/>
    </timestep>
    <timestep time="32.00">
        <vehicle id="background.0" x="338.51" y="-1.60" angle="90.00" type="human" speed="10.77" pos="38.51" lane="e1_0" slope="0.00"/>
        <vehicle id="background.1" x="269.22" y="-1.60" angle="90.00" type="human" speed="12.48" pos="269.22" lane="e0_0" slope="0.00"/>
    </timestep>
    <timestep time="32.50">
        <vehicle id="background.0" x="344.01" y="-1.60" angle="90.00" type="human" speed="11.01" pos="44.01" lane="e1_0" slope="0.00"/>
        <vehicle id="background.1" x="275.38" y="-1.60" angle="90.00" type="human" speed="12.34" pos="275.38" lane="e0_0" slope="0.00"/>
    </timestep>
    <timestep time="33.00">
        <vehicle id="background.0" x="349.35" y="-1.60" angle="90.00" type="human" speed="10.69" pos="49.35" lane="e1_0" slope="0.00"/>
        <vehicle id="background.1" x="281.55" y="-1.60" angle="90.00" type="human" speed="12.33" pos="281.55" lane="e0_0" slope="0.00"/>
    </timestep>
    <timestep time="33.50">
        <vehicle id="background.1" x="287.76" y="-1.60" angle="90.00" type="human" speed="12.41" pos="287.76" lane="e0_0" slope="0.00"/>
    </timestep>
    <timestep time="34.00">
        <vehicle id="background.1" x="293.79" y="-1.60" angle="90.00" type="human" speed="12.07" pos="293.79" lane="e0_0" slope="0.00"/>
    </timestep>
    <timestep time="34.50">
        <vehicle id="background.1" x="299.85" y="-1.60" angle="90.00" type="human" speed="12.12" pos="299.85" lane="e0_0" slope="0.00"/>
    </timestep>
    <timestep time="35.00">
        <vehicle id="background.1" x="305.93" y="-1.60" angle="90.00" type="human" speed="12.36" pos="5.93" lane="e1_0" slope="0.00"/>
    </timestep>
    <timestep time="35.50">
        <vehicle id="background.1" x="312.10" y="-1.60" angle="90.00" type="human" speed="12.32" pos="12.10" lane="e1_0" slope="0.00"/>
    </timestep>
    <timestep time="36.00">
        <vehicle id="background.1" x="318.12" y="-1.60" angle="90.00" type="human" speed="12.05" pos="18.12" lane="e1_0" slope="0.00"/>
    </timestep>
    <timestep time="36.50">
        <vehicle id="background.1" x="324.18" y="-1.60" angle="90.00" type="human" speed="12.13" pos="24.18" lane="e1_0" slope="0.00"/>
    </timestep>
    <timestep time="37.00">
        <vehicle id="background.1" x="330.31" y="-1.60" angle="90.00" type="human" speed="12.26" pos="30.31" lane="e1_0" slope="0.00"/>
    </timestep>
    <timestep time="37.50">
        <vehicle id="background.1" x="336.52" y="-1.60" angle="90.00" type="human" speed="12.42" pos="36.52" lane="e1_0" slope="0.00"/>
    </timestep>
    <timestep time="38.00">
        <vehicle id="background.1" x="342.61" y="-1.60" angle="90.00" type="human" speed="12.17" pos="42.61" lane="e1_0" slope="0.00"/>
    </timestep>
    <timestep time="38.50">
        <vehicle id="background.1" x="348.87" y="-1.60" angle="90.00" type="human" speed="12.52" pos="48.87" lane="e1_0" slope="0.00"/>
    </timestep>
    <timestep time="39.00"/>
    <timestep time="39.50"/>
    <timestep time="40.00"/>
    <timestep time="40.50"/>
    <timestep time="41.00"/>
    <timestep time="41.50"/>
    <timestep time="42.00"/>
    <timestep time="42.50"/>
    <timestep time="43.00"/>
    <timestep time="43.50"/>
    <timestep time="44.00"/>
    <timestep time="44.50">
        <vehicle id="background.2" x="5.10" y="-1.60" angle="90.00" type="human" speed="12.31" pos="5.10" lane="e0_0" slope="0.00"/>
    </timestep>
    <timestep time="45.00">
        <vehicle id="background.2" x="11.12" y="-1.60" angle="90.00" type="human" speed="12.05" pos="11.12" lane="e0_0" slope="0.00"/>
    </timestep>
    <timestep time="45.50">
        <vehicle id="background.2" x="17.17" y="-1.60" angle="90.00" type="human" speed="12.09" pos="17.17" lane="e0_0" slope="0.00"/>
    </timestep>
    <timestep time="46.00">
        <vehicle id="background.2" x="23.31" y="-1.60" angle="90.00" type="human" speed="12.29" pos="23.31" lane="e0_0" slope="0.00"/>
    </timestep>
    <timestep time="46.50">
        <vehicle id="background.2" x="29.24" y="-1.60" angle="90.00" type="human" speed="11.85" pos="29.24" lane="e0_0" slope="0.00"/>
    </timestep>
    <timestep time="47.00">
        <vehicle id="background.2" x="35.33" y="-1.60" angle="90.00" type="human" speed="12.19" pos="35.33" lane="e0_0" slope="0.00"/>
    </timestep>
    <timestep time="47.50">
        <vehicle id="background.2" x="41.25" y="-1.60" angle="90.00" type="human" speed="11.83" pos="41.25" lane="e0_0" slope="0.00"/>
    </timestep>
    <timestep time="48.00">
        <vehicle id="background.2" x="47.19" y="-1.60" angle="90.00" type="human" speed="11.89" pos="47.19" lane="e0_0" slope="0.00"/>
    </timestep>
    <timestep time="48.50">
        <vehicle id="background.2" x="53.28" y="-1.60" angle="90.00" type="human" speed="12.18" pos="53.28" lane="e0_0" slope="0.00"/>
    </timestep>
    <timestep time="49.00">
        <vehicle id="background.2" x="59.37" y="-1.60" angle="90.00" type="human" speed="12.18" pos="59.37" lane="e0_0" slope="0.00"/>
    </timestep>
    <timestep time="49.50">
        <vehicle id="background.2" x="65.35" y="-1.60" angle="90.00" type="human" speed="11.95" pos="65.35" lane="e0_0" slope="0.00"/>
    </timestep>
    <timestep time="50.00">
        <vehicle id="background.2" x="71.30" y="-1.60" angle="90.00" type="human" speed="11.91" pos="71.30" lane="e0_0" slope="0.00"/>
    </timestep>
    <timestep time="50.50">
        <vehicle id="background.2" x="77.44" y="-1.60" angle="90.00" type="human" speed="12.28" pos="77.44" lane="e0_0" slope="0.00"/>
    </timestep>
    <timestep time="51.00">
        <vehicle id="background.2" x="83.47" y="-1.60" angle="90.00" type="human" speed="12.05" pos="83.47" lane="e0_0" slope="0.00"/>
    </timestep>
    <timestep time="51.50">
        <vehicle id="background.2" x="89.59" y="-1.60" angle="90.00" type="human" speed="12.24" pos="89.59" lane="e0_0" slope="0.00"/>
    </timestep>
    <timestep time="52.00">
        <vehicle id="background.2" x="95.68" y="-1.60" angle="90.00" type="human" speed="12.19" pos="95.68" lane="e0_0" slope="0.00"/>
    </timestep>
    <timestep time="52.50">
        <vehicle id="background.2" x="101.71" y="-1.60" angle="90.00" type="human" speed="12.05" pos="101.71" lane="e0_0" slope="0.00"/>
    </timestep>
    <timestep time="53.00">
        <vehicle id="background.2" x="107.64" y="-1.60" angle="90.00" type="human" speed="11.85" pos="107.64" lane="e0_0" slope="0.00"/>
    </timestep>
    <timestep time="53.50">
        <vehicle id="background.2" x="113.64" y="-1.60" angle="90.00" type="human" speed="12.01" pos="113.64" lane="e0_0" slope="0.00"/>
    </timestep>
    <timestep time="54.00">
        <vehicle id="background.2" x="119.67" y="-1.60" angle="90.00" type="human" speed="12.06" pos="119.67" lane="e0_0" slope="0.00"/>
    </timestep>
    <timestep time="54.50">
        <vehicle id="background.2" x="125.74" y="-1.60" angle="90.00" type="human" speed="12.14" pos="125.74" lane="e0_0" slope="0.00"/>
    </timestep>
    <timestep time="55.00">
        <vehicle id="background.2" x="131.76" y="-1.60" angle="90.00" type="human" speed="12.03" pos="131.76" lane="e0_0" slope="0.00"/>
    </timestep>
    <timestep time="55.50">
        <vehicle id="background.2" x="137.87" y="-1.60" angle="90.00" type="human" speed="12.23" pos="137.87" lane="e0_0" slope="0.00"/>
    </timestep>
    <timestep time="56.00">
        <vehicle id="background.2" x="143.97" y="-1.60" angle="90.00" type="human" speed="12.19" pos="143.97" lane="e0_0" slope="0.00"/>
    </timestep>
    <timestep time="56.50">
        <vehicle id="background.2" x="150.06" y="-1.60" angle="90.00" type="human" speed="12.18" pos="150.06" lane="e0_0" slope="0.00"/>
    </timestep>
    <timestep time="57.00">
        <vehicle id="background.2" x="156.01" y="-1.60" angle="90.00" type="human" speed="11.89" pos="156.01" lane="e0_0" slope="0.00"/>
    </timestep>
    <timestep time="57.50">
        <vehicle id="background.2" x="161.95" y="-1.60" angle="90.00" type="human" speed="11.88" pos="161.95" lane="e0_0" slope="0.00"/>
    </timestep>
    <timestep time="58.00">
        <vehicle id="background.2" x="168.09" y="-1.60" angle="90.00" type="human" speed="12.29" pos="168.09" lane="e0_0" slope="0.00"/>
    </timestep>
    <timestep time="58.50">
        <vehicle id="background.2" x="174.07" y="-1.60" angle="90.00" type="human" speed="11.96" pos="174.07" lane="e0_0" slope="0.00"/>
    </timestep>
    <timestep time="59.00">
        <vehicle id="background.2" x="180.22" y="-1.60" angle="90.00" type="human" speed="12.30" pos="180.22" lane="e0_0" slope="0.00"/>
    </timestep>
    <timestep time="59.50">
        <vehicle id="background.2" x="186.13" y="-1.60" angle="90.00" type="human" speed="11.81" pos="186.13" lane="e0_0" slope="0.00"/>
    </timestep>
    <timestep time="60.00">
        <vehicle id="background.2" x="192.24" y="-1.60" angle="90.00" type="human" speed="12.23" pos="192.24" lane="e0_0" slope="0.00"/>
    </timestep>
    <timestep time="60.50">
        <vehicle id="background.2" x="198.31" y="-1.60" angle="90.00" type="human" speed="12.15" pos="198.31" lane="e0_0" slope="0.00"/>
    </timestep>
    <timestep time="61.00">
        <vehicle id="background.2" x="204.31" y="-1.60" angle="90.00" type="human" speed="11.99" pos="204.31" lane="e0_0" slope="0.00"/>
    </timestep>
    <timestep time="61.50">
        <vehicle id="background.2" x="210.34" y="-1.60" angle="90.00" type="human" speed="12.08" pos="210.34" lane="e0_0" slope="0.00"/>
    </timestep>
    <timestep time="62.00">
        <vehicle id="background.2" x="216.49" y="-1.60" angle="90.00" type="human" speed="12.29" pos="216.49" lane="e0_0" slope="0.00"/>
    </timestep>
    <timestep time="62.50">
        <vehicle id="background.2" x="222.42" y="-1.60" angle="90.00" type="human" speed="11.87" pos="222.42" lane="e0_0" slope="0.00"/>
    </timestep>
    <timestep time="63.00">
        <vehicle id="background.2" x="228.46" y="-1.60" angle="90.00" type="human" speed="12.07" pos="228.46" lane="e0_0" slope="0.00"/>
    </timestep>
    <timestep time="63.50">
        <vehicle id="background.2" x="234.45" y="-1.60" angle="90.00" type="human" speed="11.99" pos="234.45" lane="e0_0" slope="0.00"/>
    </timestep>
    <timestep time="64.00">
        <vehicle id="background.2" x="240.51" y="-1.60" angle="90.00" type="human" speed="12.11" pos="240.51" lane="e0_0" slope="0.00"/>
    </timestep>
    <timestep time="64.50">
        <vehicle id="background.2" x="246.58" y="-1.60" angle="90.00" type="human" speed="12.14" pos="246.58" lane="e0_0" slope="0.00"/>
    </timestep>
    <timestep time="65.00">
        <vehicle id="background.2" x="252.55" y="-1.60" angle="90.00" type="human" speed="11.95" pos="252.55" lane="e0_0" slope="0.00"/>
    </timestep>
    <timestep time="65.50">
        <vehicle id="background.2" x="258.57" y="-1.60" angle="90.00" type="human" speed="12.03" pos="258.57" lane="e0_0" slope="0.00"/>
    </timestep>
    <timestep time="66.00">
        <vehicle id="background.2" x="264.60" y="-1.60" angle="90.00" type="human" speed="12.06" pos="264.60" lane="e0_0" slope="0.00"/>
    </timestep>
    <timestep time="66.50">
        <vehicle id="background.2" x="270.72" y="-1.60" angle="90.00" type="human" speed="12.25" pos="270.72" lane="e0_0" slope="0.00"/>
    </timestep>
    <timestep time="67.00">
        <vehicle id="background.2" x="276.77" y="-1.60" angle="90.00" type="human" speed="12.09" pos="276.77" lane="e0_0" slope="0.00"/>
    </timestep>
    <timestep time="67.50">
        <vehicle id="background.2" x="282.72" y="-1.60" angle="90.00" type="human" speed="11.90" pos="282.72" lane="e0_0" slope="0.00"/>
    </timestep>
    <timestep time="68.00">
        <vehicle id="background.2" x="288.11" y="-1.60" angle="90.00" type="human" speed="10.78" pos="288.11" lane="e0_0" slope="0.00"/>
    </timestep>
    <timestep time="68.50">