<?xml version="1.0" encoding="UTF-8"?>

<!-- generated on 2026-05-14 17:05:26 by Eclipse SUMO sumo Version 1.24.0
<sumoConfiguration xmlns:xsi="http://www.w3.org/2001/XMLSchema-instance" xsi:noNamespaceSchemaLocation="http://sumo.dlr.de/xsd/sumoConfiguration.xsd">

    <input>
        <net-file value="scenarios/simple_arterial/simple_arterial.net.xml"/>
        <route-files value="scenarios/simple_arterial/simple_arterial_glosa.rou.xml"/>
        <additional-files value="scenarios/simple_arterial/simple_arterial.tls.xml"/>
    </input>

    <output>
        <fcd-output value="runs/fcd_expert_glosa/episode_00005_seed_47.fcd.xml"/>
    </output>

    <time>
        <begin value="0"/>
        <end value="900"/>
        <step-length value="0.5"/>
    </time>

    <report>
        <no-warnings value="true"/>
    </report>

    <traci_server>
        <remote-port value="37703"/>
    </traci_server>

    <random_number>
        <seed value="47"/>
    </random_number>

</sumoConfiguration>
-->

<fcd-export xmlns:xsi="http://www.w3.org/2001/XMLSchema-instance" xsi:noNamespaceSchemaLocation="http://sumo.dlr.de/xsd/fcd_file.xsd">
    <timestep time="0.00"/>
    <timestep time="0.50"/>
    <timestep time="1.00"/>
    <timestep time="1.50"/>
    <timestep time="2.00"/>
    <timestep time="2.50"/>
    <timestep time="3.00"/>
    <timestep time="3.50"/>
    <timestep time="4.00"/>
    <timestep time="4.50"/>
    <timestep time="5.00"/>
    <timestep time="5.50"/>
    <timestep time="6.00"/>
    <timestep time="6.50"/>
    <timestep time="7.00"/>
    <timestep time="7.50"/>
    <timestep time="8.00"/>
    <timestep time="8.50"/>
    <timestep time="9.00"/>
    <timestep time="9.50"/>
    <timestep time="10.00"/>
    <timestep time="10.50"/>
    <timestep time="11.00">
        <vehicle id="background.0" x="5.10" y="-1.60" angle="90.00" type="human" speed="13.89" pos="5.10" lane="e0_0" slope="0.00"/>
    </timestep>
    <timestep time="11.50">
        <vehicle id="background.0" x="12.04" y="-1.60" angle="90.00" type="human" speed="13.88" pos="12.04" lane="e0_0" slope="0.00"/>
    </timestep>
    <timestep time="12.00">
        <vehicle id="background.0" x="18.88" y="-1.60" angle="90.00" type="human" speed="13.68" pos="18.88" lane="e0_0" slope="0.00"/>
    </timestep>
    <timestep time="12.50">
        <vehicle id="background.0" x="25.60" y="-1.60" angle="90.00" type="human" speed="13.44" pos="25.60" lane="e0_0" slope="0.00"/>
    </timestep>
    <timestep time="13.00">
        <vehicle id="background.0" x="32.48" y="-1.60" angle="90.00" type="human" speed="13.76" pos="32.48" lane="e0_0" slope="0.00"/>
    </timestep>
    <timestep time="13.50">
        <vehicle id="background.0" x="39.35" y="-1.60" angle="90.00" type="human" speed="13.75" pos="39.35" lane="e0_0" slope="0.00"/>
    </timestep>
    <timestep time="14.00">
        <vehicle id="background.0" x="46.12" y="-1.60" angle="90.00" type="human" speed="13.54" pos="46.12" lane="e0_0" slope="0.00"/>
    </timestep>
    <timestep time="14.50">
        <vehicle id="background.0" x="53.00" y="-1.60" angle="90.00" type="human" speed="13.74" pos="53.00" lane="e0_0" slope="0.00"/>
    </timestep>
    <timestep time="15.00">
        <vehicle id="background.0" x="59.91" y="-1.60" angle="90.00" type="human" speed="13.84" pos="59.91" lane="e0_0" slope="0.00"/>
    </timestep>
    <timestep time="15.50">
        <vehicle id="background.0" x="66.66" y="-1.60" angle="90.00" type="human" speed="13.49" pos="66.66" lane="e0_0" slope="0.00"/>
    </timestep>
    <timestep time="16.00">
        <vehicle id="background.0" x="73.36" y="-1.60" angle="90.00" type="human" speed="13.41" pos="73.36" lane="e0_0" slope="0.00"/>
    </timestep>
    <timestep time="16.50">
        <vehicle id="background.0" x="80.23" y="-1.60" angle="90.00" type="human" speed="13.73" pos="80.23" lane="e0_0" slope="0.00"/>
    </timestep>
    <timestep time="17.00">
        <vehicle id="background.0" x="87.07" y="-1.60" angle="90.00" type="human" speed="13.69" pos="87.07" lane="e0_0" slope="0.00"/>
    </timestep>
    <timestep time="17.50">
        <vehicle id="background.0" x="93.80" y="-1.60" angle="90.00" type="human" speed="13.46" pos="93.80" lane="e0_0" slope="0.00"/>
    </timestep>
    <timestep time="18.00">
        <vehicle id="background.0" x="100.63" y="-1.60" angle="90.00" type="human" speed="13.65" pos="100.63" lane="e0_0" slope="0.00"/>
    </timestep>
    <timestep time="18.50">
        <vehicle id="background.0" x="107.46" y="-1.60" angle="90.00" type="human" speed="13.67" pos="107.46" lane="e0_0" slope="0.00"/>
    </timestep>
    <timestep time="19.00">
        <vehicle id="background.0" x="114.22" y="-1.60" angle="90.00" type="human" speed="13.52" pos="114.22" lane="e0_0" slope="0.00"/>
    </timestep>
    <timestep time="19.50">
        <vehicle id="background.0" x="121.03" y="-1.60" angle="90.00" type="human" speed="13.62" pos="121.03" lane="e0_0" slope="0.00"/>
    </timestep>
    <timestep time="20.00">
        <vehicle id="background.0" x="127.86" y="-1.60" angle="90.00" type="human" speed="13.66" pos="127.86" lane="e0_0" slope="0.00"/>
    </timestep>
    <timestep time="20.50">
        <vehicle id="background.0" x="134.71" y="-1.60" angle="90.00" type="human" speed="13.71" pos="134.71" lane="e0_0" slope="0.00"/>
    </timestep>
    <timestep time="21.00">
        <vehicle id="background.0" x="141.50" y="-1.60" angle="90.00" type="human" speed="13.56" pos="141.50" lane="e0_0" slope="0.00"/>
    </timestep>
    <timestep time="21.50">
        <vehicle id="background.0" x="148.41" y="-1.60" angle="90.00" type="human" speed="13.83" pos="148.41" lane="e0_0" slope="0.00"/>
    </timestep>
    <timestep time="22.00">
        <vehicle id="background.0" x="155.14" y="-1.60" angle="90.00" type="human" speed="13.45" pos="155.14" lane="e0_0" slope="0.00"/>
    </timestep>
    <timestep time="22.50">
        <vehicle id="background.0" x="162.05" y="-1.60" angle="90.00" type="human" speed="13.82" pos="162.05" lane="e0_0" slope="0.00"/>
    </timestep>
    <timestep time="23.00">
        <vehicle id="background.0" x="168.81" y="-1.60" angle="90.00" type="human" speed="13.52" pos="168.81" lane="e0_0" slope="0.00"/>
        <vehicle id="background.1" x="5.10" y="-1.60" angle="90.00" type="human" speed="11.85" pos="5.10" lane="e0_0" slope="0.00"/>
    </timestep>
    <timestep time="23.50">
        <vehicle id="background.0" x="175.65" y="-1.60" angle="90.00" type="human" speed="13.67" pos="175.65" lane="e0_0" slope="0.00"/>
        <vehicle id="background.1" x="10.94" y="-1.60" angle="90.00" type="human" speed="11.69" pos="10.94" lane="e0_0" slope="0.00"/>
    </timestep>
    <timestep time="24.00">
        <vehicle id="background.0" x="182.41" y="-1.60" angle="90.00" type="human" speed="13.52" pos="182.41" lane="e0_0" slope="0.00"/>
        <vehicle id="background.1" x="16.68" y="-1.60" angle="90.00" type="human" speed="11.47" pos="16.68" lane="e0_0" slope="0.00"/>
    </timestep>
    <timestep time="24.50">
        <vehicle id="background.0" x="189.24" y="-1.60" angle="90.00" type="human" speed="13.66" pos="189.24" lane="e0_0" slope="0.00"/>
        <vehicle id="background.1" x="22.48" y="-1.60" angle="90.00" type="human" speed="11.60" pos="22.48" lane="e0_0" slope="0.00"/>
    </timestep>
    <timestep time="25.00">
        <vehicle id="background.0" x="196.03" y="-1.60" angle="90.00" type="human" speed="13.59" pos="196.03" lane="e0_0" slope="0.00"/>
        <vehicle id="background.1" x="28.19" y="-1.60" angle="90.00" type="human" speed="11.43" pos="28.19" lane="e0_0" slope="0.00"/>
    </timestep>
    <timestep time="25.50">
        <vehicle id="background.0" x="202.89" y="-1.60" angle="90.00" type="human" speed="13.72" pos="202.89" lane="e0_0" slope="0.00"/>
        <vehicle id="background.1" x="33.89" y="-1.60" angle="90.00" type="human" speed="11.39" pos="33.89" lane="e0_0" slope="0.00"/>
    </timestep>
    <timestep time="26.00">
        <vehicle id="background.0" x="209.73" y="-1.60" angle="90.00" type="human" speed="13.66" pos="209.73" lane="e0_0" slope="0.00"/>
        <vehicle id="background.1" x="39.65" y="-1.60" angle="90.00" type="human" speed="11.53" pos="39.65" lane="e0_0" slope="0.00"/>
    </timestep>
    <timestep time="26.50">
        <vehicle id="background.0" x="216.62" y="-1.60" angle="90.00" type="human" speed="13.80" pos="216.62" lane="e0_0" slope="0.00"/>
        <vehicle id="background.1" x="45.45" y="-1.60" angle="90.00" type="human" speed="11.60" pos="45.45" lane="e0_0" slope="0.00"/>
    </timestep>
    <timestep time="27.00">
        <vehicle id="background.0" x="223.47" y="-1.60" angle="90.00" type="human" speed="13.69" pos="223.47" lane="e0_0" slope="0.00"/>
        <vehicle id="background.1" x="51.26" y="-1.60" angle="90.00" type="human" speed="11.63" pos="51.26" lane="e0_0" slope="0.00"/>
    </timestep>
    <timestep time="27.50">
        <vehicle id="background.0" x="230.38" y="-1.60" angle="90.00" type="human" speed="13.82" pos="230.38" lane="e0_0" slope="0.00"/>
        <vehicle id="background.1" x="57.03" y="-1.60" angle="90.00" type="human" speed="11.52" pos="57.03" lane="e0_0" slope="0.00"/>
    </timestep>
    <timestep time="28.00">
        <vehicle id="background.0" x="237.31" y="-1.60" angle="90.00" type="human" speed="13.87" pos="237.31" lane="e0_0" slope="0.00"/>
        <vehicle id="background.1" x="62.91" y="-1.60" angle="90.00" type="human" speed="11.77" pos="62.91" lane="e0_0" slope="0.00"/>
    </timestep>
    <timestep time="28.50">
        <vehicle id="background.0" x="244.24" y="-1.60" angle="90.00" type="human" speed="13.85" pos="244.24" lane="e0_0" slope="0.00"/>
        <vehicle id="background.1" x="68.75" y="-1.60" angle="90.00" type="human" speed="11.67" pos="68.75" lane="e0_0" slope="0.00"/>
    </timestep>
    <timestep time="29.00">
        <vehicle id="background.0" x="251.13" y="-1.60" angle="90.00" type="human" speed="13.78" pos="251.13" lane="e0_0" slope="0.00"/>
        <vehicle id="background.1" x="74.60" y="-1.60" angle="90.00" type="human" speed="11.70" pos="74.60" lane="e0_0" slope="0.00"/>
    </timestep>
    <timestep time="29.50">
        <vehicle id="background.0" x="257.94" y="-1.60" angle="90.00" type="human" speed="13.62" pos="257.94" lane="e0_0" slope="0.00"/>
        <vehicle id="background.1" x="80.52" y="-1.60" angle="90.00" type="human" speed="11.85" pos="80.52" lane="e0_0" slope="0.00"/>
    </timestep>
    <timestep time="30.00">
        <vehicle id="background.0" x="264.72" y="-1.60" angle="90.00" type="human" speed="13.56" pos="264.72" lane="e0_0" slope="0.00"/>
        <vehicle id="background.1" x="86.21" y="-1.60" angle="90.00" type="human" speed="11.37" pos="86.21" lane="e0_0" slope="0.00"/>
    </timestep>
    <timestep time="30.50">
        <vehicle id="background.0" x="271.52" y="-1.60" angle="90.00" type="human" speed="13.60" pos="271.52" lane="e0_0" slope="0.00"/>
        <vehicle id="background.1" x="92.05" y="-1.60" angle="90.00" type="human" speed="11.69" pos="92.05" lane="e0_0" slope="0.00"/>
    </timestep>
    <timestep time="31.00">
        <vehicle id="background.0" x="278.32" y="-1.60" angle="90.00" type="human" speed="13.60" pos="278.32" lane="e0_0" slope="0.00"/>
        <vehicle id="background.1" x="97.80" y="-1.60" angle="90.00" type="human" speed="11.50" pos="97.80" lane="e0_0" slope="0.00"/>
    </timestep>
    <timestep time="31.50">
        <vehicle id="background.0" x="285.18" y="-1.60" angle="90.00" type="human" speed="13.72" pos="285.18" lane="e0_0" slope="0.00"/>
        <vehicle id="background.1" x="103.49" y="-1.60" angle="90.00" type="human" speed="11.39" pos="103.49" lane="e0_0" slope="0.00"/>
        <vehicle id="background.2" x="5.10" y="-1.60" angle="90.00" type="human" speed="13.89" pos="5.10" lane="e0_0" slope="0.00"/>
    </timestep>
    <timestep time="32.00">
        <vehicle id="background.0" x="292.03" y="-1.60" angle="90.00" type="human" speed="13.70" pos="292.03" lane="e0_0" slope="0.00"/>
        <vehicle id="background.1" x="109.41" y="-1.60" angle="90.00" type="human" speed="11.82" pos="109.41" lane="e0_0" slope="0.00"/>
        <vehicle id="background.2" x="11.94" y="-1.60" angle="90.00" type="human" speed="13.69" pos="11.94" lane="e0_0" slope="0.00"/>
    </timestep>
    <timestep time="32.50">
        <vehicle id="background.0" x="298.94" y="-1.60" angle="90.00" type="human" speed="13.82" pos="298.94" lane="e0_0" slope="0.00"/>
        <vehicle id="background.1" x="115.16" y="-1.60" angle="90.00" type="human" speed="11.51" pos="115.16" lane="e0_0" slope="0.00"/>
        <vehicle id="background.2" x="18.75" y="-1.60" angle="90.00" type="human" speed="13.62" pos="18.75" lane="e0_0" slope="0.00"/>
        <vehicle id="background.3" x="5.10" y="-1.60" angle="90.00" type="human" speed="11.50" pos="5.10" lane="e0_0" slope="0.00"/>
    </timestep>
    <timestep time="33.00">
        <vehicle id="background.0" x="305.75" y="-1.60" angle="90.00" type="human" speed="13.82" pos="5.75" lane="e1_0" slope="0.00"/>
        <vehicle id="background.1" x="121.08" y="-1.60" angle="90.00" type="human" speed="11.82" pos="121.08" lane="e0_0" slope="0.00"/>
        <vehicle id="background.2" x="25.50" y="-1.60" angle="90.00" type="human" speed="13.50" pos="25.50" lane="e0_0" slope="0.00"/>
        <vehicle id="background.3" x="10.69" y="-1.60" angle="90.00" type="human" speed="11.17" pos="10.69" lane="e0_0" slope="0.00"/>
    </timestep>
    <timestep time="33.50">
        <vehicle id="background.0" x="312.62" y="-1.60" angle="90.00" type="human" speed="13.74" pos="12.62" lane="e1_0" slope="0.00"/>
        <vehicle id="background.1" x="126.99" y="-1.60" angle="90.00" type="human" speed="11.84" pos="126.99" lane="e0_0" slope="0.00"/>
        <vehicle id="background.2" x="32.35" y="-1.60" angle="90.00" type="human" speed="13.70" pos="32.35" lane="e0_0" slope="0.00"/>
        <vehicle id="background.3" x="16.40" y="-1.60" angle="90.00" type="human" speed="11.42" pos="16.40" lane="e0_0" slope="0.00"/>
    </timestep>
    <timestep time="34.00">
        <vehicle id="background.0" x="319.45" y="-1.60" angle="90.00" type="human" speed="13.65" pos="19.45" lane="e1_0" slope="0.00"/>
        <vehicle id="background.1" x="132.81" y="-1.60" angle="90.00" type="human" speed="11.63" pos="132.81" lane="e0_0" slope="0.00"/>
        <vehicle id="background.2" x="39.26" y="-1.60" angle="90.00" type="human" speed="13.81" pos="39.26" lane="e0_0" slope="0.00"/>
        <vehicle id="background.3" x="22.51" y="-1.60" angle="90.00" type="human" speed="12.22" pos="22.51" lane="e0_0" slope="0.00"/>
    </timestep>
    <timestep time="34.50">
        <vehicle id="background.0" x="326.33" y="-1.60" angle="90.00" type="human" speed="13.77" pos="26.33" lane="e1_0" slope="0.00"/>
        <vehicle id="background.1" x="138.54" y="-1.60" angle="90.00" type="human" speed="11.47" pos="138.54" lane="e0_0" slope="0.00"/>
        <vehicle id="background.2" x="45.96" y="-1.60" angle="90.00" type="human" speed="13.41" pos="45.96" lane="e0_0" slope="0.00"/>
        <vehicle id="background.3" x="28.72" y="-1.60" angle="90.00" type="human" speed="12.42" pos="28.72" lane="e0_0" slope="0.00"/>
    </timestep>
    <timestep time="35.00">
        <vehicle id="background.0" x="333.08" y="-1.60" angle="90.00" type="human" speed="13.51" pos="33.08" lane="e1_0" slope="0.00"/>
        <vehicle id="background.1" x="144.29" y="-1.60" angle="90.00" type="human" speed="11.49" pos="144.29" lane="e0_0" slope="0.00"/>
        <vehicle id="background.2" x="52.72" y="-1.60" angle="90.00" type="human" speed="13.50" pos="52.72" lane="e0_0" slope="0.00"/>
        <vehicle id="background.3" x="34.87" y="-1.60" angle="90.00" type="human" speed="12.31" pos="34.87" lane="e0_0" slope="0.00"/>
    </timestep>
    <timestep time="35.50">
        <vehicle id="background.0" x="339.80" y="-1.60" angle="90.00" type="human" speed="13.43" pos="39.80" lane="e1_0" slope="0.00"/>
        <vehicle id="background.1" x="150.14" y="-1.60" angle="90.00" type="human" speed="11.71" pos="150.14" lane="e0_0" slope="0.00"/>
        <vehicle id="background.2" x="59.63" y="-1.60" angle="90.00" type="human" speed="13.83" pos="59.63" lane="e0_0" slope="0.00"/>
        <vehicle id="background.3" x="41.01" y="-1.60" angle="90.00" type="human" speed="12.28" pos="41.01" lane="e0_0" slope="0.00"/>
    </timestep>
    <timestep time="36.00">
        <vehicle id="background.0" x="346.69" y="-1.60" angle="90.00" type="human" speed="13.79" pos="46.69" lane="e1_0" slope="0.00"/>
        <vehicle id="background.1" x="155.83" y="-1.60" angle="90.00" type="human" speed="11.37" pos="155.83" lane="e0_0" slope="0.00"/>
        <vehicle id="background.2" x="66.34" y="-1.60" angle="90.00" type="human" speed="13.41" pos="66.34" lane="e0_0" slope="0.00"/>
        <vehicle id="background.3" x="47.39" y="-1.60" angle="90.00" type="human" speed="12.76" pos="47.39" lane="e0_0" slope="0.00"/>
    </timestep>
    <timestep time="36.50">
        <vehicle id="background.1" x="161.53" y="-1.60" angle="90.00" type="human" speed="11.39" pos="161.53" lane="e0_0" slope="0.00"/>
        <vehicle id="background.2" x="73.17" y="-1.60" angle="90.00" type="human" speed="13.65" pos="73.17" lane="e0_0" slope="0.00"/>
        <vehicle id="background.3" x="53.77" y="-1.60" angle="90.00" type="human" speed="12.77" pos="53.77" lane="e0_0" slope="0.00"/>
    </timestep>
    <timestep time="37.00">
        <vehicle id="background.1" x="167.23" y="-1.60" angle="90.00" type="human" speed="11.40" pos="167.23" lane="e0_0" slope="0.00"/>
        <vehicle id="background.2" x="80.03" y="-1.60" angle="90.00" type="human" speed="13.72" pos="80.03" lane="e0_0" slope="0.00"/>
        <vehicle id="background.3" x="60.11" y="-1.60" angle="90.00" type="human" speed="12.67" pos="60.11" lane="e0_0" slope="0.00"/>
    </timestep>
    <timestep time="37.50">
        <vehicle id="background.1" x="173.13" y="-1.60" angle="90.00" type="human" speed="11.81" pos="173.13" lane="e0_0" slope="0.00"/>
        <vehicle id="background.2" x="86.84" y="-1.60" angle="90.00" type="human" speed="13.63" pos="86.84" lane="e0_0" slope="0.00"/>
        <vehicle id="background.3" x="66.36" y="-1.60" angle="90.00" type="human" speed="12.50" pos="66.36" lane="e0_0" slope="0.00"/>
    </timestep>
    <timestep time="38.00">
        <vehicle id="background.1" x="178.85" y="-1.60" angle="90.00" type="human" speed="11.45" pos="178.85" lane="e0_0" slope="0.00"/>
        <vehicle id="background.2" x="93.62" y="-1.60" angle="90.00" type="human" speed="13.55" pos="93.62" lane="e0_0" slope="0.00"/>
        <vehicle id="background.3" x="72.74" y="-1.60" angle="90.00" type="human" speed="12.76" pos="72.74" lane="e0_0" slope="0.00"/>
    </timestep>
    <timestep time="38.50">
        <vehicle id="background.1" x="184.55" y="-1.60" angle="90.00" type="human" speed="11.40" pos="184.55" lane="e0_0" slope="0.00"/>
        <vehicle id="background.2" x="100.42" y="-1.60" angle="90.00" type="human" speed="13.60" pos="100.42" lane="e0_0" slope="0.00"/>
        <vehicle id="background.3" x="79.08" y="-1.60" angle="90.00" type="human" speed="12.70" pos="79.08" lane="e0_0" slope="0.00"/>
    </timestep>
    <timestep time="39.00">
        <vehicle id="background.1" x="190.27" y="-1.60" angle="90.00" type="human" speed="11.43" pos="190.27" lane="e0_0" slope="0.00"/>
        <vehicle id="background.2" x="107.32" y="-1.60" angle="90.00" type="human" speed="13.80" pos="107.32" lane="e0_0" slope="0.00"/>
        <vehicle id="background.3" x="85.34" y="-1.60" angle="90.00" type="human" speed="12.51" pos="85.34" lane="e0_0" slope="0.00"/>
    </timestep>
    <timestep time="39.50">
        <vehicle id="background.1" x="196.19" y="-1.60" angle="90.00" type="human" speed="11.84" pos="196.19" lane="e0_0" slope="0.00"/>
        <vehicle id="background.2" x="114.12" y="-1.60" angle="90.00" type="human" speed="13.61" pos="114.12" lane="e0_0" slope="0.00"/>
        <vehicle id="background.3" x="91.67" y="-1.60" angle="90.00" type="human" speed="12.66" pos="91.67" lane="e0_0" slope="0.00"/>
    </timestep>
    <timestep time="40.00">
        <vehicle id="background.1" x="201.99" y="-1.60" angle="90.00" type="human" speed="11.61" pos="201.99" lane="e0_0" slope="0.00"/>
        <vehicle id="background.2" x="120.83" y="-1.60" angle="90.00" type="human" speed="13.41" pos="120.83" lane="e0_0" slope="0.00"/>
        <vehicle id="background.3" x="97.89" y="-1.60" angle="90.00" type="human" speed="12.44" pos="97.89" lane="e0_0" slope="0.00"/>
    </timestep>
    <timestep time="40.50">
        <vehicle id="background.1" x="207.78" y="-1.60" angle="90.00" type="human" speed="11.56" pos="207.78" lane="e0_0" slope="0.00"/>
        <vehicle id="background.2" x="127.64" y="-1.60" angle="90.00" type="human" speed="13.64" pos="127.64" lane="e0_0" slope="0.00"/>
        <vehicle id="background.3" x="104.10" y="-1.60" angle="90.00" type="human" speed="12.40" pos="104.10" lane="e0_0" slope="0.00"/>
    </timestep>
    <timestep time="41.00">
        <vehicle id="background.1" x="213.69" y="-1.60" angle="90.00" type="human" speed="11.83" pos="213.69" lane="e0_0" slope="0.00"/>
        <vehicle id="background.2" x="134.46" y="-1.60" angle="90.00" type="human" speed="13.63" pos="134.46" lane="e0_0" slope="0.00"/>
        <vehicle id="background.3" x="110.33" y="-1.60" angle="90.00" type="human" speed="12.48" pos="110.33" lane="e0_0" slope="0.00"/>
    </timestep>
    <timestep time="41.50">
        <vehicle id="background.1" x="219.44" y="-1.60" angle="90.00" type="human" speed="11.49" pos="219.44" lane="e0_0" slope="0.00"/>
        <vehicle id="background.2" x="141.30" y="-1.60" angle="90.00" type="human" speed="13.68" pos="141.30" lane="e0_0" slope="0.00"/>
        <vehicle id="background.3" x="116.66" y="-1.60" angle="90.00" type="human" speed="12.66" pos="116.66" lane="e0_0" slope="0.00"/>
    </timestep>
    <timestep time="42.00">
        <vehicle id="background.1" x="225.33" y="-1.60" angle="90.00" type="human" speed="11.78" pos="225.33" lane="e0_0" slope="0.00"/>
        <vehicle id="background.2" x="148.00" y="-1.60" angle="90.00" type="human" speed="13.39" pos="148.00" lane="e0_0" slope="0.00"/>
        <vehicle id="background.3" x="122.87" y="-1.60" angle="90.00" type="human" speed="12.41" pos="122.87" lane="e0_0" slope="0.00"/>
    </timestep>
    <timestep time="42.50">
        <vehicle id="background.1" x="231.16" y="-1.60" angle="90.00" type="human" speed="11.66" pos="231.16" lane="e0_0" slope="0.00"/>
        <vehicle id="background.2" x="154.73" y="-1.60" angle="90.00" type="human" speed="13.46" pos="154.73" lane="e0_0" slope="0.00"/>
        <vehicle id="background.3" x="129.26" y="-1.60" angle="90.00" type="human" speed="12.78" pos="129.26" lane="e0_0" slope="0.00"/>
    </timestep>
    <timestep time="43.00">
        <vehicle id="background.1" x="236.85" y="-1.60" angle="90.00" type="human" speed="11.39" pos="236.85" lane="e0_0" slope="0.00"/>
        <vehicle id="background.2" x="161.45" y="-1.60" angle="90.00" type="human" speed="13.44" pos="161.45" lane="e0_0" slope="0.00"/>
        <vehicle id="background.3" x="135.66" y="-1.60" angle="90.00" type="human" speed="12.80" pos="135.66" lane="e0_0" slope="0.00"/>
    </timestep>
    <timestep time="43.50">
        <vehicle id="background.1" x="242.76" y="-1.60" angle="90.00" type="human" speed="11.82" pos="242.76" lane="e0_0" slope="0.00"/>
        <vehicle id="background.2" x="168.32" y="-1.60" angle="90.00" type="human" speed="13.75" pos="168.32" lane="e0_0" slope="0.00"/>
        <vehicle id="background.3" x="142.06" y="-1.60" angle="90.00" type="human" speed="12.80" pos="142.06" lane="e0_0" slope="0.00"/>
    </timestep>
    <timestep time="44.00">
        <vehicle id="background.1" x="248.50" y="-1.60" angle="90.00" type="human" speed="11.48" pos="248.50" lane="e0_0" slope="0.00"/>
        <vehicle id="background.2" x="175.15" y="-1.60" angle="90.00" type="human" speed="13.66" pos="175.15" lane="e0_0" slope="0.00"/>
        <vehicle id="background.3" x="148.40" y="-1.60" angle="90.00" type="human" speed="12.68" pos="148.40" lane="e0_0" slope="0.00"/>
    </timestep>
    <timestep time="44.50">
        <vehicle id="background.1" x="254.43" y="-1.60" angle="90.00" type="human" speed="11.85" pos="254.43" lane="e0_0" slope="0.00"/>
        <vehicle id="background.2" x="182.01" y="-1.60" angle="90.00" type="human" speed="13.72" pos="182.01" lane="e0_0" slope="0.00"/>
        <vehicle id="background.3" x="154.65" y="-1.60" angle="90.00" type="human" speed="12.50" pos="154.65" lane="e0_0" slope="0.00"/>
    </timestep>
    <timestep time="45.00">
        <vehicle id="background.1" x="260.15" y="-1.60" angle="90.00" type="human" speed="11.43" pos="260.15" lane="e0_0" slope="0.00"/>
        <vehicle id="background.2" x="188.86" y="-1.60" angle="90.00" type="human" speed="13.70" pos="188.86" lane="e0_0" slope="0.00"/>
        <vehicle id="background.3" x="161.06" y="-1.60" angle="90.00" type="human" speed="12.82" pos="161.06" lane="e0_0" slope="0.00"/>
    </timestep>
    <timestep time="45.50">
        <vehicle id="background.1" x="265.89" y="-1.60" angle="90.00" type="human" speed="11.50" pos="265.89" lane="e0_0" slope="0.00"/>
        <vehicle id="background.2" x="195.63" y="-1.60" angle="90.00" type="human" speed="13.54" pos="195.63" lane="e0_0" slope="0.00"/>
        <vehicle id="background.3" x="167.34" y="-1.60" angle="90.00" type="human" speed="12.55" pos="167.34" lane="e0_0" slope="0.00"/>
    </timestep>
    <timestep time="46.00">
        <vehicle id="background.1" x="271.77" y="-1.60" angle="90.00" type="human" speed="11.76" pos="271.77" lane="e0_0" slope="0.00"/>
        <vehicle id="background.2" x="202.34" y="-1.60" angle="90.00" type="human" speed="13.43" pos="202.34" lane="e0_0" slope="0.00"/>
        <vehicle id="background.3" x="173.58" y="-1.60" angle="90.00" type="human" speed="12.48" pos="173.58" lane="e0_0" slope="0.00"/>
    </timestep>
    <timestep time="46.50">
        <vehicle id="background.1" x="277.68" y="-1.60" angle="90.00" type="human" speed="11.81" pos="277.68" lane="e0_0" slope="0.00"/>
        <vehicle id="background.2" x="209.07" y="-1.60" angle="90.00" type="human" speed="13.45" pos="209.07" lane="e0_0" slope="0.00"/>
        <vehicle id="background.3" x="179.85" y="-1.60" angle="90.00" type="human" speed="12.54" pos="179.85" lane="e0_0" slope="0.00"/>
    </timestep>
    <timestep time="47.00">
        <vehicle id="background.1" x="283.59" y="-1.60" angle="90.00" type="human" speed="11.82" pos="283.59" lane="e0_0" slope="0.00"/>
        <vehicle id="background.2" x="215.86" y="-1.60" angle="90.00" type="human" speed="13.59" pos="215.86" lane="e0_0" slope="0.00"/>
        <vehicle id="background.3" x="186.26" y="-1.60" angle="90.00" type="human" speed="12.81" pos="186.26" lane="e0_0" slope="0.00"/>
    </timestep>
    <timestep time="47.50">
        <vehicle id="background.1" x="288.83" y="-1.60" angle="90.00" type="human" speed="10.49" pos="288.83" lane="e0_0" slope="0.00"/>
        <vehicle id="background.2" x="222.59" y="-1.60" angle="90.00" type="human" speed="13.46" pos="222.59" lane="e0_0" slope="0.00"/>
        <vehicle id="background.3" x="192.60" y="-1.60" angle="90.00" type="human" speed="12.68" pos="192.60" lane="e0_0" slope="0.00"/>
    </timestep>
    <timestep time="48.00">
        <vehicle id="background.1" x="292.97" y="-1.60" angle="90.00" type="human" speed="8.27" pos="292.97" lane="e0_0" slope="0.00"/>
        <vehicle id="background.2" x="229.53" y="-1.60" angle="90.00" type="human" speed="13.88" pos="229.53" lane="e0_0" slope="0.00"/>
        <vehicle id="background.3" x="198.82" y="-1.60" angle="90.00" type="human" speed="12.46" pos="198.82" lane="e0_0" slope="0.00"/>
    </timestep>
    <timestep time="48.50">
        <vehicle id="background.1" x="295.98" y="-1.60" angle="90.00" type="human" speed="6.02" pos="295.98" lane="e0_0" slope="0.00"/>
        <vehicle id="background.2" x="236.30" y="-1.60" angle="90.00" type="human" speed="13.54" pos="236.30" lane="e0_0" slope="0.00"/>
        <vehicle id="background.3" x="205.06" y="-1.60" angle="90.00" type="human" speed="12.48" pos="205.06" lane="e0_0" slope="0.00"/>
    </timestep>
    <timestep time="49.00">
        <vehicle id="background.1" x="298.04" y="-1.60" angle="90.00" type="human" speed="4.12" pos="298.04" lane="e0_0" slope="0.00"/>
        <vehicle id="background.2" x="243.16" y="-1.60" angle="90.00" type="human" speed="13.71" pos="243.16" lane="e0_0" slope="0.00"/>
        <vehicle id="background.3" x="211.38" y="-1.60" angle="90.00" type="human" speed="12.64" pos="211.38" lane="e0_0" slope="0.00"/>
    </timestep>
    <timestep time="49.50">
        <vehicle id="background.1" x="298.98" y="-1.60" angle="90.00" type="human" speed="1.87" pos="298.98" lane="e0_0" slope="0.00"/>
        <vehicle id="background.2" x="250.03" y="-1.60" angle="90.00" type="human" speed="13.74" pos="250.03" lane="e0_0" slope="0.00"/>
        <vehicle id="background.3" x="217.66" y="-1.60" angle="90.00" type="human" speed="12.56" pos="217.66" lane="e0_0" slope="0.00"/>
    </timestep>
    <timestep time="50.00">
        <vehicle id="background.1" x="299.00" y="-1.60" angle="90.00" type="human" speed="0.04" pos="299.00" lane="e0_0" slope="0.00"/>
        <vehicle id="background.2" x="256.90" y="-1.60" angle="90.00" type="human" speed="13.75" pos="256.90" lane="e0_0" slope="0.00"/>
        <vehicle id="background.3" x="224.04" y="-1.60" angle="90.00" type="human" speed="12.75" pos="224.04" lane="e0_0" slope="0.00"/>
    </timestep>
    <timestep time="50.50">
        <vehicle id="background.1" x="299.00" y="-1.60" angle="90.00" type="human" speed="0.01" pos="299.00" lane="e0_0" slope="0.00"/>