<?xml version="1.0" encoding="UTF-8"?>

<!-- generated on 2026-05-14 17:06:16 by Eclipse SUMO sumo Version 1.24.0
<sumoConfiguration xmlns:xsi="http://www.w3.org/2001/XMLSchema-instance" xsi:noNamespaceSchemaLocation="http://sumo.dlr.de/xsd/sumoConfiguration.xsd">

    <input>
        <net-file value="scenarios/simple_arterial/simple_arterial.net.xml"/>
        <route-files value="scenarios/simple_arterial/simple_arterial_glosa.rou.xml"/>
        <additional-files value="scenarios/simple_arterial/simple_arterial.tls.xml"/>
    </input>

    <output>
        <fcd-output value="runs/fcd_expert_glosa/episode_00048_seed_90.fcd.xml"/>
    </output>

    <time>
        <begin value="0"/>
        <end value="900"/>
        <step-length value="0.5"/>
    </time>

    <report>
        <no-warnings value="true"/>
    </report>

    <traci_server>
        <remote-port value="37703"/>
    </traci_server>

    <random_number>
        <seed value="90"/>
    </random_number>

</sumoConfiguration>
-->

<fcd-export xmlns:xsi="http://www.w3.org/2001/XMLSchema-instance" xsi:noNamespaceSchemaLocation="http://sumo.dlr.de/xsd/fcd_file.xsd">
    <timestep time="0.00"/>
    <timestep time="0.50"/>
    <timestep time="1.00"/>
    <timestep time="1.50"/>
    <timestep time="2.00"/>
    <timestep time="2.50"/>
    <timestep time="3.00"/>
    <timestep time="3.50"/>
    <timestep time="4.00"/>
    <timestep time="4.50"/>
    <timestep time="5.00"/>
    <timestep time="5.50"/>
    <timestep time="6.00"/>
    <timestep time="6.50"/>
    <timestep time="7.00"/>
    <timestep time="7.50"/>
    <timestep time="8.00"/>
    <timestep time="8.50"/>
    <timestep time="9.00"/>
    <timestep time="9.50"/>
    <timestep time="10.00"/>
    <timestep time="10.50"/>
    <timestep time="11.00"/>
    <timestep time="11.50"/>
    <timestep time="12.00"/>
    <timestep time="12.50"/>
    <timestep time="13.00"/>
    <timestep time="13.50"/>
    <timestep time="14.00"/>
    <timestep time="14.50"/>
    <timestep time="15.00"/>
    <timestep time="15.50"/>
    <timestep time="16.00"/>
    <timestep time="16.50"/>
    <timestep time="17.00"/>
    <timestep time="17.50"/>
    <timestep time="18.00"/>
    <timestep time="18.50"/>
    <timestep time="19.00"/>
    <timestep time="19.50"/>
    <timestep time="20.00"/>
    <timestep time="20.50"/>
    <timestep time="21.00"/>
    <timestep time="21.50"/>
    <timestep time="22.00"/>
    <timestep time="22.50"/>
    <timestep time="23.00"/>
    <timestep time="23.50"/>
    <timestep time="24.00"/>
    <timestep time="24.50"/>
    <timestep time="25.00"/>
    <timestep time="25.50">
        <vehicle id="background.0" x="5.10" y="-1.60" angle="90.00" type="human" speed="13.39" pos="5.10" lane="e0_0" slope="0.00"/>
    </timestep>
    <timestep time="26.00">
        <vehicle id="background.0" x="11.75" y="-1.60" angle="90.00" type="human" speed="13.29" pos="11.75" lane="e0_0" slope="0.00"/>
    </timestep>
    <timestep time="26.50">
        <vehicle id="background.0" x="18.20" y="-1.60" angle="90.00" type="human" speed="12.90" pos="18.20" lane="e0_0" slope="0.00"/>
    </timestep>
    <timestep time="27.00">
        <vehicle id="background.0" x="24.81" y="-1.60" angle="90.00" type="human" speed="13.23" pos="24.81" lane="e0_0" slope="0.00"/>
    </timestep>
    <timestep time="27.50">
        <vehicle id="background.0" x="31.39" y="-1.60" angle="90.00" type="human" speed="13.16" pos="31.39" lane="e0_0" slope="0.00"/>
    </timestep>
    <timestep time="28.00">
        <vehicle id="background.0" x="38.01" y="-1.60" angle="90.00" type="human" speed="13.25" pos="38.01" lane="e0_0" slope="0.00"/>
    </timestep>
    <timestep time="28.50">
        <vehicle id="background.0" x="44.57" y="-1.60" angle="90.00" type="human" speed="13.11" pos="44.57" lane="e0_0" slope="0.00"/>
    </timestep>
    <timestep time="29.00">
        <vehicle id="background.0" x="51.24" y="-1.60" angle="90.00" type="human" speed="13.35" pos="51.24" lane="e0_0" slope="0.00"/>
    </timestep>
    <timestep time="29.50">
        <vehicle id="background.0" x="57.70" y="-1.60" angle="90.00" type="human" speed="12.93" pos="57.70" lane="e0_0" slope="0.00"/>
    </timestep>
    <timestep time="30.00">
        <vehicle id="background.0" x="64.32" y="-1.60" angle="90.00" type="human" speed="13.23" pos="64.32" lane="e0_0" slope="0.00"/>
    </timestep>
    <timestep time="30.50">
        <vehicle id="background.0" x="70.90" y="-1.60" angle="90.00" type="human" speed="13.16" pos="70.90" lane="e0_0" slope="0.00"/>
    </timestep>
    <timestep time="31.00">
        <vehicle id="background.0" x="77.42" y="-1.60" angle="90.00" type="human" speed="13.03" pos="77.42" lane="e0_0" slope="0.00"/>
    </timestep>
    <timestep time="31.50">
        <vehicle id="background.0" x="83.98" y="-1.60" angle="90.00" type="human" speed="13.12" pos="83.98" lane="e0_0" slope="0.00"/>
    </timestep>
    <timestep time="32.00">
        <vehicle id="background.0" x="90.51" y="-1.60" angle="90.00" type="human" speed="13.07" pos="90.51" lane="e0_0" slope="0.00"/>
    </timestep>
    <timestep time="32.50">
        <vehicle id="background.0" x="97.13" y="-1.60" angle="90.00" type="human" speed="13.23" pos="97.13" lane="e0_0" slope="0.00"/>
    </timestep>
    <timestep time="33.00">
        <vehicle id="background.0" x="103.70" y="-1.60" angle="90.00" type="human" speed="13.14" pos="103.70" lane="e0_0" slope="0.00"/>
    </timestep>
    <timestep time="33.50">
        <vehicle id="background.0" x="110.21" y="-1.60" angle="90.00" type="human" speed="13.02" pos="110.21" lane="e0_0" slope="0.00"/>
    </timestep>
    <timestep time="34.00">
        <vehicle id="background.0" x="116.67" y="-1.60" angle="90.00" type="human" speed="12.92" pos="116.67" lane="e0_0" slope="0.00"/>
        <vehicle id="ego" x="5.10" y="-1.60" angle="90.00" type="ego_glosa_type" speed="0.00" pos="5.10" lane="e0_0" slope="0.00"/>
    </timestep>
    <timestep time="34.50">
        <vehicle id="background.0" x="123.30" y="-1.60" angle="90.00" type="human" speed="13.25" pos="123.30" lane="e0_0" slope="0.00"/>
        <vehicle id="ego" x="5.60" y="-1.60" angle="90.00" type="ego_glosa_type" speed="1.00" pos="5.60" lane="e0_0" slope="0.00"/>
    </timestep>
    <timestep time="35.00">
        <vehicle id="background.0" x="129.89" y="-1.60" angle="90.00" type="human" speed="13.20" pos="129.89" lane="e0_0" slope="0.00"/>
        <vehicle id="ego" x="6.60" y="-1.60" angle="90.00" type="ego_glosa_type" speed="2.00" pos="6.60" lane="e0_0" slope="0.00"/>
    </timestep>
    <timestep time="35.50">
        <vehicle id="background.0" x="136.54" y="-1.60" angle="90.00" type="human" speed="13.30" pos="136.54" lane="e0_0" slope="0.00"/>
        <vehicle id="ego" x="8.10" y="-1.60" angle="90.00" type="ego_glosa_type" speed="3.00" pos="8.10" lane="e0_0" slope="0.00"/>
    </timestep>
    <timestep time="36.00">
        <vehicle id="background.0" x="143.12" y="-1.60" angle="90.00" type="human" speed="13.16" pos="143.12" lane="e0_0" slope="0.00"/>
        <vehicle id="ego" x="10.10" y="-1.60" angle="90.00" type="ego_glosa_type" speed="4.00" pos="10.10" lane="e0_0" slope="0.00"/>
    </timestep>
    <timestep time="36.50">
        <vehicle id="background.0" x="149.80" y="-1.60" angle="90.00" type="human" speed="13.34" pos="149.80" lane="e0_0" slope="0.00"/>
        <vehicle id="ego" x="12.60" y="-1.60" angle="90.00" type="ego_glosa_type" speed="5.00" pos="12.60" lane="e0_0" slope="0.00"/>
    </timestep>
    <timestep time="37.00">
        <vehicle id="background.0" x="156.41" y="-1.60" angle="90.00" type="human" speed="13.23" pos="156.41" lane="e0_0" slope="0.00"/>
        <vehicle id="ego" x="15.60" y="-1.60" angle="90.00" type="ego_glosa_type" speed="6.00" pos="15.60" lane="e0_0" slope="0.00"/>
    </timestep>
    <timestep time="37.50">
        <vehicle id="background.0" x="162.99" y="-1.60" angle="90.00" type="human" speed="13.16" pos="162.99" lane="e0_0" slope="0.00"/>
        <vehicle id="ego" x="19.10" y="-1.60" angle="90.00" type="ego_glosa_type" speed="7.00" pos="19.10" lane="e0_0" slope="0.00"/>
    </timestep>
    <timestep time="38.00">
        <vehicle id="background.0" x="169.56" y="-1.60" angle="90.00" type="human" speed="13.13" pos="169.56" lane="e0_0" slope="0.00"/>
        <vehicle id="ego" x="23.10" y="-1.60" angle="90.00" type="ego_glosa_type" speed="8.00" pos="23.10" lane="e0_0" slope="0.00"/>
    </timestep>
    <timestep time="38.50">
        <vehicle id="background.0" x="176.12" y="-1.60" angle="90.00" type="human" speed="13.13" pos="176.12" lane="e0_0" slope="0.00"/>
        <vehicle id="ego" x="27.60" y="-1.60" angle="90.00" type="ego_glosa_type" speed="9.00" pos="27.60" lane="e0_0" slope="0.00"/>
    </timestep>
    <timestep time="39.00">
        <vehicle id="background.0" x="182.66" y="-1.60" angle="90.00" type="human" speed="13.07" pos="182.66" lane="e0_0" slope="0.00"/>
        <vehicle id="ego" x="32.60" y="-1.60" angle="90.00" type="ego_glosa_type" speed="10.00" pos="32.60" lane="e0_0" slope="0.00"/>
    </timestep>
    <timestep time="39.50">
        <vehicle id="background.0" x="189.20" y="-1.60" angle="90.00" type="human" speed="13.09" pos="189.20" lane="e0_0" slope="0.00"/>
        <vehicle id="ego" x="38.10" y="-1.60" angle="90.00" type="ego_glosa_type" speed="11.00" pos="38.10" lane="e0_0" slope="0.00"/>
    </timestep>
    <timestep time="40.00">
        <vehicle id="background.0" x="195.89" y="-1.60" angle="90.00" type="human" speed="13.37" pos="195.89" lane="e0_0" slope="0.00"/>
        <vehicle id="ego" x="44.10" y="-1.60" angle="90.00" type="ego_glosa_type" speed="12.00" pos="44.10" lane="e0_0" slope="0.00"/>
    </timestep>
    <timestep time="40.50">
        <vehicle id="background.0" x="202.55" y="-1.60" angle="90.00" type="human" speed="13.32" pos="202.55" lane="e0_0" slope="0.00"/>
        <vehicle id="ego" x="50.60" y="-1.60" angle="90.00" type="ego_glosa_type" speed="13.00" pos="50.60" lane="e0_0" slope="0.00"/>
    </timestep>
    <timestep time="41.00">
        <vehicle id="background.0" x="209.21" y="-1.60" angle="90.00" type="human" speed="13.33" pos="209.21" lane="e0_0" slope="0.00"/>
        <vehicle id="ego" x="57.30" y="-1.60" angle="90.00" type="ego_glosa_type" speed="13.39" pos="57.30" lane="e0_0" slope="0.00"/>
    </timestep>
    <timestep time="41.50">
        <vehicle id="background.0" x="215.75" y="-1.60" angle="90.00" type="human" speed="13.07" pos="215.75" lane="e0_0" slope="0.00"/>
        <vehicle id="ego" x="63.99" y="-1.60" angle="90.00" type="ego_glosa_type" speed="13.39" pos="63.99" lane="e0_0" slope="0.00"/>
    </timestep>
    <timestep time="42.00">
        <vehicle id="background.0" x="222.25" y="-1.60" angle="90.00" type="human" speed="13.01" pos="222.25" lane="e0_0" slope="0.00"/>
        <vehicle id="ego" x="70.69" y="-1.60" angle="90.00" type="ego_glosa_type" speed="13.39" pos="70.69" lane="e0_0" slope="0.00"/>
    </timestep>
    <timestep time="42.50">
        <vehicle id="background.0" x="228.75" y="-1.60" angle="90.00" type="human" speed="12.99" pos="228.75" lane="e0_0" slope="0.00"/>
        <vehicle id="ego" x="77.39" y="-1.60" angle="90.00" type="ego_glosa_type" speed="13.39" pos="77.39" lane="e0_0" slope="0.00"/>
    </timestep>
    <timestep time="43.00">
        <vehicle id="background.0" x="235.26" y="-1.60" angle="90.00" type="human" speed="13.02" pos="235.26" lane="e0_0" slope="0.00"/>
        <vehicle id="ego" x="84.09" y="-1.60" angle="90.00" type="ego_glosa_type" speed="13.39" pos="84.09" lane="e0_0" slope="0.00"/>
    </timestep>
    <timestep time="43.50">
        <vehicle id="background.0" x="241.81" y="-1.60" angle="90.00" type="human" speed="13.11" pos="241.81" lane="e0_0" slope="0.00"/>
        <vehicle id="background.1" x="5.10" y="-1.60" angle="90.00" type="human" speed="13.53" pos="5.10" lane="e0_0" slope="0.00"/>
        <vehicle id="ego" x="90.78" y="-1.60" angle="90.00" type="ego_glosa_type" speed="13.39" pos="90.78" lane="e0_0" slope="0.00"/>
    </timestep>
    <timestep time="44.00">
        <vehicle id="background.0" x="248.33" y="-1.60" angle="90.00" type="human" speed="13.04" pos="248.33" lane="e0_0" slope="0.00"/>
        <vehicle id="background.1" x="11.85" y="-1.60" angle="90.00" type="human" speed="13.49" pos="11.85" lane="e0_0" slope="0.00"/>
        <vehicle id="ego" x="97.48" y="-1.60" angle="90.00" type="ego_glosa_type" speed="13.39" pos="97.48" lane="e0_0" slope="0.00"/>
    </timestep>
    <timestep time="44.50">
        <vehicle id="background.0" x="255.01" y="-1.60" angle="90.00" type="human" speed="13.36" pos="255.01" lane="e0_0" slope="0.00"/>
        <vehicle id="background.1" x="18.42" y="-1.60" angle="90.00" type="human" speed="13.15" pos="18.42" lane="e0_0" slope="0.00"/>
        <vehicle id="ego" x="104.18" y="-1.60" angle="90.00" type="ego_glosa_type" speed="13.39" pos="104.18" lane="e0_0" slope="0.00"/>
    </timestep>
    <timestep time="45.00">
        <vehicle id="background.0" x="261.48" y="-1.60" angle="90.00" type="human" speed="12.94" pos="261.48" lane="e0_0" slope="0.00"/>
        <vehicle id="background.1" x="25.13" y="-1.60" angle="90.00" type="human" speed="13.40" pos="25.13" lane="e0_0" slope="0.00"/>
        <vehicle id="ego" x="110.87" y="-1.60" angle="90.00" type="ego_glosa_type" speed="13.39" pos="110.87" lane="e0_0" slope="0.00"/>
    </timestep>
    <timestep time="45.50">
        <vehicle id="background.0" x="268.04" y="-1.60" angle="90.00" type="human" speed="13.13" pos="268.04" lane="e0_0" slope="0.00"/>
        <vehicle id="background.1" x="31.72" y="-1.60" angle="90.00" type="human" speed="13.19" pos="31.72" lane="e0_0" slope="0.00"/>
        <vehicle id="ego" x="117.57" y="-1.60" angle="90.00" type="ego_glosa_type" speed="13.39" pos="117.57" lane="e0_0" slope="0.00"/>
    </timestep>
    <timestep time="46.00">
        <vehicle id="background.0" x="274.50" y="-1.60" angle="90.00" type="human" speed="12.91" pos="274.50" lane="e0_0" slope="0.00"/>
        <vehicle id="background.1" x="38.32" y="-1.60" angle="90.00" type="human" speed="13.20" pos="38.32" lane="e0_0" slope="0.00"/>
        <vehicle id="ego" x="124.27" y="-1.60" angle="90.00" type="ego_glosa_type" speed="13.39" pos="124.27" lane="e0_0" slope="0.00"/>
    </timestep>
    <timestep time="46.50">
        <vehicle id="background.0" x="281.07" y="-1.60" angle="90.00" type="human" speed="13.13" pos="281.07" lane="e0_0" slope="0.00"/>
        <vehicle id="background.1" x="44.97" y="-1.60" angle="90.00" type="human" speed="13.29" pos="44.97" lane="e0_0" slope="0.00"/>
        <vehicle id="ego" x="130.96" y="-1.60" angle="90.00" type="ego_glosa_type" speed="13.39" pos="130.96" lane="e0_0" slope="0.00"/>
    </timestep>
    <timestep time="47.00">
        <vehicle id="background.0" x="286.81" y="-1.60" angle="90.00" type="human" speed="11.48" pos="286.81" lane="e0_0" slope="0.00"/>
        <vehicle id="background.1" x="51.53" y="-1.60" angle="90.00" type="human" speed="13.12" pos="51.53" lane="e0_0" slope="0.00"/>
        <vehicle id="ego" x="137.66" y="-1.60" angle="90.00" type="ego_glosa_type" speed="13.39" pos="137.66" lane="e0_0" slope="0.00"/>
    </timestep>
    <timestep time="47.50">
        <vehicle id="background.0" x="291.42" y="-1.60" angle="90.00" type="human" speed="9.23" pos="291.42" lane="e0_0" slope="0.00"/>
        <vehicle id="background.1" x="58.26" y="-1.60" angle="90.00" type="human" speed="13.47" pos="58.26" lane="e0_0" slope="0.00"/>
        <vehicle id="ego" x="144.36" y="-1.60" angle="90.00" type="ego_glosa_type" speed="13.39" pos="144.36" lane="e0_0" slope="0.00"/>
    </timestep>
    <timestep time="48.00">
        <vehicle id="background.0" x="294.91" y="-1.60" angle="90.00" type="human" speed="6.98" pos="294.91" lane="e0_0" slope="0.00"/>
        <vehicle id="background.1" x="64.93" y="-1.60" angle="90.00" type="human" speed="13.34" pos="64.93" lane="e0_0" slope="0.00"/>
        <vehicle id="ego" x="151.06" y="-1.60" angle="90.00" type="ego_glosa_type" speed="13.39" pos="151.06" lane="e0_0" slope="0.00"/>
    </timestep>
    <timestep time="48.50">
        <vehicle id="background.0" x="297.28" y="-1.60" angle="90.00" type="human" speed="4.73" pos="297.28" lane="e0_0" slope="0.00"/>
        <vehicle id="background.1" x="71.60" y="-1.60" angle="90.00" type="human" speed="13.33" pos="71.60" lane="e0_0" slope="0.00"/>
        <vehicle id="ego" x="157.75" y="-1.60" angle="90.00" type="ego_glosa_type" speed="13.39" pos="157.75" lane="e0_0" slope="0.00"/>
    </timestep>
    <timestep time="49.00">
        <vehicle id="background.0" x="298.66" y="-1.60" angle="90.00" type="human" speed="2.76" pos="298.66" lane="e0_0" slope="0.00"/>
        <vehicle id="background.1" x="78.34" y="-1.60" angle="90.00" type="human" speed="13.47" pos="78.34" lane="e0_0" slope="0.00"/>
        <vehicle id="ego" x="164.45" y="-1.60" angle="90.00" type="ego_glosa_type" speed="13.39" pos="164.45" lane="e0_0" slope="0.00"/>
    </timestep>
    <timestep time="49.50">
        <vehicle id="background.0" x="298.93" y="-1.60" angle="90.00" type="human" speed="0.55" pos="298.93" lane="e0_0" slope="0.00"/>
        <vehicle id="background.1" x="85.03" y="-1.60" angle="90.00" type="human" speed="13.38" pos="85.03" lane="e0_0" slope="0.00"/>
        <vehicle id="ego" x="171.15" y="-1.60" angle="90.00" type="ego_glosa_type" speed="13.39" pos="171.15" lane="e0_0" slope="0.00"/>
    </timestep>
    <timestep time="50.00">
        <vehicle id="background.0" x="298.99" y="-1.60" angle="90.00" type="human" speed="0.12" pos="298.99" lane="e0_0" slope="0.00"/>
        <vehicle id="background.1" x="91.55" y="-1.60" angle="90.00" type="human" speed="13.04" pos="91.55" lane="e0_0" slope="0.00"/>
        <vehicle id="ego" x="177.84" y="-1.60" angle="90.00" type="ego_glosa_type" speed="13.39" pos="177.84" lane="e0_0" slope="0.00"/>
    </timestep>
    <timestep time="50.50">
        <vehicle id="background.0" x="299.00" y="-1.60" angle="90.00" type="human" speed="0.01" pos="299.00" lane="e0_0" slope="0.00"/>
        <vehicle id="background.1" x="98.15" y="-1.60" angle="90.00" type="human" speed="13.19" pos="98.15" lane="e0_0" slope="0.00"/>
        <vehicle id="ego" x="184.54" y="-1.60" angle="90.00" type="ego_glosa_type" speed="13.39" pos="184.54" lane="e0_0" slope="0.00"/>
    </timestep>
    <timestep time="51.00">
        <vehicle id="background.0" x="299.00" y="-1.60" angle="90.00" type="human" speed="0.00" pos="299.00" lane="e0_0" slope="0.00"/>
        <vehicle id="background.1" x="104.67" y="-1.60" angle="90.00" type="human" speed="13.04" pos="104.67" lane="e0_0" slope="0.00"/>
        <vehicle id="ego" x="191.24" y="-1.60" angle="90.00" type="ego_glosa_type" speed="13.39" pos="191.24" lane="e0_0" slope="0.00"/>
    </timestep>
    <timestep time="51.50">
        <vehicle id="background.0" x="299.00" y="-1.60" angle="90.00" type="human" speed="0.00" pos="299.00" lane="e0_0" slope="0.00"/>
        <vehicle id="background.1" x="111.37" y="-1.60" angle="90.00" type="human" speed="13.40" pos="111.37" lane="e0_0" slope="0.00"/>
        <vehicle id="ego" x="197.94" y="-1.60" angle="90.00" type="ego_glosa_type" speed="13.39" pos="197.94" lane="e0_0" slope="0.00"/>
    </timestep>
    <timestep time="52.00">
        <vehicle id="background.0" x="299.00" y="-1.60" angle="90.00" type="human" speed="0.00" pos="299.00" lane="e0_0" slope="0.00"/>
        <vehicle id="background.1" x="118.05" y="-1.60" angle="90.00" type="human" speed="13.36" pos="118.05" lane="e0_0" slope="0.00"/>
        <vehicle id="ego" x="204.63" y="-1.60" angle="90.00" type="ego_glosa_type" speed="13.39" pos="204.63" lane="e0_0" slope="0.00"/>
    </timestep>
    <timestep time="52.50">
        <vehicle id="background.0" x="299.00" y="-1.60" angle="90.00" type="human" speed="0.00" pos="299.00" lane="e0_0" slope="0.00"/>
        <vehicle id="background.1" x="124.66" y="-1.60" angle="90.00" type="human" speed="13.22" pos="124.66" lane="e0_0" slope="0.00"/>
        <vehicle id="ego" x="211.33" y="-1.60" angle="90.00" type="ego_glosa_type" speed="13.39" pos="211.33" lane="e0_0" slope="0.00"/>
    </timestep>
    <timestep time="53.00">
        <vehicle id="background.0" x="299.00" y="-1.60" angle="90.00" type="human" speed="0.00" pos="299.00" lane="e0_0" slope="0.00"/>
        <vehicle id="background.1" x="131.36" y="-1.60" angle="90.00" type="human" speed="13.41" pos="131.36" lane="e0_0" slope="0.00"/>
        <vehicle id="ego" x="218.03" y="-1.60" angle="90.00" type="ego_glosa_type" speed="13.39" pos="218.03" lane="e0_0" slope="0.00"/>
    </timestep>
    <timestep time="53.50">
        <vehicle id="background.0" x="299.00" y="-1.60" angle="90.00" type="human" speed="0.00" pos="299.00" lane="e0_0" slope="0.00"/>
        <vehicle id="background.1" x="138.03" y="-1.60" angle="90.00" type="human" speed="13.35" pos="138.03" lane="e0_0" slope="0.00"/>
        <vehicle id="ego" x="224.72" y="-1.60" angle="90.00" type="ego_glosa_type" speed="13.39" pos="224.72" lane="e0_0" slope="0.00"/>
    </timestep>
    <timestep time="54.00">
        <vehicle id="background.0" x="299.00" y="-1.60" angle="90.00" type="human" speed="0.00" pos="299.00" lane="e0_0" slope="0.00"/>
        <vehicle id="background.1" x="144.74" y="-1.60" angle="90.00" type="human" speed="13.42" pos="144.74" lane="e0_0" slope="0.00"/>
        <vehicle id="ego" x="231.42" y="-1.60" angle="90.00" type="ego_glosa_type" speed="13.39" pos="231.42" lane="e0_0" slope="0.00"/>
    </timestep>
    <timestep time="54.50">
        <vehicle id="background.0" x="299.00" y="-1.60" angle="90.00" type="human" speed="0.00" pos="299.00" lane="e0_0" slope="0.00"/>
        <vehicle id="background.1" x="151.29" y="-1.60" angle="90.00" type="human" speed="13.09" pos="151.29" lane="e0_0" slope="0.00"/>
        <vehicle id="ego" x="238.12" y="-1.60" angle="90.00" type="ego_glosa_type" speed="13.39" pos="238.12" lane="e0_0" slope="0.00"/>
    </timestep>
    <timestep time="55.00">
        <vehicle id="background.0" x="299.00" y="-1.60" angle="90.00" type="human" speed="0.00" pos="299.00" lane="e0_0" slope="0.00"/>
        <vehicle id="background.1" x="157.80" y="-1.60" angle="90.00" type="human" speed="13.03" pos="157.80" lane="e0_0" slope="0.00"/>
        <vehicle id="ego" x="244.81" y="-1.60" angle="90.00" type="ego_glosa_type" speed="13.39" pos="244.81" lane="e0_0" slope="0.00"/>
    </timestep>
    <timestep time="55.50">
        <vehicle id="background.0" x="299.00" y="-1.60" angle="90.00" type="human" speed="0.00" pos="299.00" lane="e0_0" slope="0.00"/>
        <vehicle id="background.1" x="164.40" y="-1.60" angle="90.00" type="human" speed="13.19" pos="164.40" lane="e0_0" slope="0.00"/>
        <vehicle id="ego" x="251.51" y="-1.60" angle="90.00" type="ego_glosa_type" speed="13.39" pos="251.51" lane="e0_0" slope="0.00"/>
    </timestep>
    <timestep time="56.00">
        <vehicle id="background.0" x="299.00" y="-1.60" angle="90.00" type="human" speed="0.00" pos="299.00" lane="e0_0" slope="0.00"/>
        <vehicle id="background.1" x="170.97" y="-1.60" angle="90.00" type="human" speed="13.14" pos="170.97" lane="e0_0" slope="0.00"/>
        <vehicle id="ego" x="258.21" y="-1.60" angle="90.00" type="ego_glosa_type" speed="13.39" pos="258.21" lane="e0_0" slope="0.00"/>
    </timestep>
    <timestep time="56.50">
        <vehicle id="background.0" x="299.00" y="-1.60" angle="90.00" type="human" speed="0.00" pos="299.00" lane="e0_0" slope="0.00"/>
        <vehicle id="background.1" x="177.51" y="-1.60" angle="90.00" type="human" speed="13.07" pos="177.51" lane="e0_0" slope="0.00"/>
        <vehicle id="ego" x="264.91" y="-1.60" angle="90.00" type="ego_glosa_type" speed="13.39" pos="264.91" lane="e0_0" slope="0.00"/>
    </timestep>
    <timestep time="57.00">
        <vehicle id="background.0" x="299.00" y="-1.60" angle="90.00" type="human" speed="0.00" pos="299.00" lane="e0_0" slope="0.00"/>
        <vehicle id="background.1" x="184.20" y="-1.60" angle="90.00" type="human" speed="13.39" pos="184.20" lane="e0_0" slope="0.00"/>
        <vehicle id="ego" x="271.12" y="-1.60" angle="90.00" type="ego_glosa_type" speed="12.42" pos="271.12" lane="e0_0" slope="0.00"/>
    </timestep>
    <timestep time="57.50">
        <vehicle id="background.0" x="299.00" y="-1.60" angle="90.00" type="human" speed="0.00" pos="299.00" lane="e0_0" slope="0.00"/>
        <vehicle id="background.1" x="190.81" y="-1.60" angle="90.00" type="human" speed="13.21" pos="190.81" lane="e0_0" slope="0.00"/>
        <vehicle id="ego" x="276.39" y="-1.60" angle="90.00" type="ego_glosa_type" speed="10.54" pos="276.39" lane="e0_0" slope="0.00"/>
    </timestep>
    <timestep time="58.00">
        <vehicle id="background.0" x="299.00" y="-1.60" angle="90.00" type="human" speed="0.00" pos="299.00" lane="e0_0" slope="0.00"/>
        <vehicle id="background.1" x="197.48" y="-1.60" angle="90.00" type="human" speed="13.34" pos="197.48" lane="e0_0" slope="0.00"/>
        <vehicle id="ego" x="280.76" y="-1.60" angle="90.00" type="ego_glosa_type" speed="8.74" pos="280.76" lane="e0_0" slope="0.00"/>
    </timestep>
    <timestep time="58.50">
        <vehicle id="background.0" x="299.00" y="-1.60" angle="90.00" type="human" speed="0.00" pos="299.00" lane="e0_0" slope="0.00"/>
        <vehicle id="background.1" x="204.13" y="-1.60" angle="90.00" type="human" speed="13.29" pos="204.13" lane="e0_0" slope="0.00"/>
        <vehicle id="ego" x="284.26" y="-1.60" angle="90.00" type="ego_glosa_type" speed="7.00" pos="284.26" lane="e0_0" slope="0.00"/>
    </timestep>
    <timestep time="59.00">
        <vehicle id="background.0" x="299.00" y="-1.60" angle="90.00" type="human" speed="0.00" pos="299.00" lane="e0_0" slope="0.00"/>
        <vehicle id="background.1" x="210.68" y="-1.60" angle="90.00" type="human" speed="13.10" pos="210.68" lane="e0_0" slope="0.00"/>
        <vehicle id="ego" x="286.91" y="-1.60" angle="90.00" type="ego_glosa_type" speed="5.31" pos="286.91" lane="e0_0" slope="0.00"/>
    </timestep>
    <timestep time="59.50">
        <vehicle id="background.0" x="299.00" y="-1.60" angle="90.00" type="human" speed="0.00" pos="299.00" lane="e0_0" slope="0.00"/>
        <vehicle id="background.1" x="217.24" y="-1.60" angle="90.00" type="human" speed="13.12" pos="217.24" lane="e0_0" slope="0.00"/>
        <vehicle id="ego" x="288.82" y="-1.60" angle="90.00" type="ego_glosa_type" speed="3.81" pos="288.82" lane="e0_0" slope="0.00"/>
    </timestep>
    <timestep time="60.00">
        <vehicle id="background.0" x="299.00" y="-1.60" angle="90.00" type="human" speed="0.00" pos="299.00" lane="e0_0" slope="0.00"/>
        <vehicle id="background.1" x="223.78" y="-1.60" angle="90.00" type="human" speed="13.08" pos="223.78" lane="e0_0" slope="0.00"/>
        <vehicle id="ego" x="290.08" y="-1.60" angle="90.00" type="ego_glosa_type" speed="2.54" pos="290.08" lane="e0_0" slope="0.00"/>
    </timestep>
    <timestep time="60.50">
        <vehicle id="background.0" x="299.00" y="-1.60" angle="90.00" type="human" speed="0.00" pos="299.00" lane="e0_0" slope="0.00"/>
        <vehicle id="background.1" x="230.38" y="-1.60" angle="90.00" type="human" speed="13.22" pos="230.38" lane="e0_0" slope="0.00"/>
        <vehicle id="ego" x="290.79" y="-1.60" angle="90.00" type="ego_glosa_type" speed="1.41" pos="290.79" lane="e0_0" slope="0.00"/>
    </timestep>
    <timestep time="61.00">
        <vehicle id="background.0" x="299.00" y="-1.60" angle="90.00" type="human" speed="0.00" pos="299.00" lane="e0_0" slope="0.00"/>
        <vehicle id="background.1" x="237.08" y="-1.60" angle="90.00" type="human" speed="13.39" pos="237.08" lane="e0_0" slope="0.00"/>
        <vehicle id="ego" x="291.14" y="-1.60" angle="90.00" type="ego_glosa_type" speed="0.71" pos="291.14" lane="e0_0" slope="0.00"/>
    </timestep>
    <timestep time="61.50">
        <vehicle id="background.0" x="299.00" y="-1.60" angle="90.00" type="human" speed="0.00" pos="299.00" lane="e0_0" slope="0.00"/>
        <vehicle id="background.1" x="243.65" y="-1.60" angle="90.00" type="human" speed="13.14" pos="243.65" lane="e0_0" slope="0.00"/>
        <vehicle id="ego" x="291.32" y="-1.60" angle="90.00" type="ego_glosa_type" speed="0.35" pos="291.32" lane="e0_0" slope="0.00"/>
    </timestep>
    <timestep time="62.00">
        <vehicle id="background.0" x="299.00" y="-1.60" angle="90.00" type="human" speed="0.00" pos="299.00" lane="e0_0" slope="0.00"/>
        <vehicle id="background.1" x="250.22" y="-1.60" angle="90.00" type="human" speed="13.14" pos="250.22" lane="e0_0" slope="0.00"/>
        <vehicle id="ego" x="291.41" y="-1.60" angle="90.00" type="ego_glosa_type" speed="0.18" pos="291.41" lane="e0_0" slope="0.00"/>
    </timestep>
    <timestep time="62.50">
        <vehicle id="background.0" x="299.00" y="-1.60" angle="90.00" type="human" speed="0.00" pos="299.00" lane="e0_0" slope="0.00"/>
        <vehicle id="background.1" x="256.95" y="-1.60" angle="90.00" type="human" speed="13.45" pos="256.95" lane="e0_0" slope="0.00"/>
        <vehicle id="ego" x="291.45" y="-1.60" angle="90.00" type="ego_glosa_type" speed="0.09" pos="291.45" lane="e0_0" slope="0.00"/>
    </timestep>
    <timestep time="63.00">
        <vehicle id="background.0" x="299.00" y="-1.60" angle="90.00" type="human" speed="0.00" pos="299.00" lane="e0_0" slope="0.00"/>
        <vehicle id="background.1" x="262.98" y="-1.60" angle="90.00" type="human" speed="12.07" pos="262.98" lane="e0_0" slope="0.00"/>
        <vehicle id="ego" x="291.48" y="-1.60" angle="90.00" type="ego_glosa_type" speed="0.04" pos="291.48" lane="e0_0" slope="0.00"/>
    </timestep>
    <timestep time="63.50">
        <vehicle id="background.0" x="299.00" y="-1.60" angle="90.00" type="human" speed="0.00" pos="299.00" lane="e0_0" slope="0.00"/>