<?xml version="1.0" encoding="UTF-8"?>

<!-- generated on 2026-05-14 17:06:24 by Eclipse SUMO sumo Version 1.24.0
<sumoConfiguration xmlns:xsi="http://www.w3.org/2001/XMLSchema-instance" xsi:noNamespaceSchemaLocation="http://sumo.dlr.de/xsd/sumoConfiguration.xsd">

    <input>
        <net-file value="scenarios/simple_arterial/simple_arterial.net.xml"/>
        <route-files value="scenarios/simple_arterial/simple_arterial_glosa.rou.xml"/>
        <additional-files value="scenarios/simple_arterial/simple_arterial.tls.xml"/>
    </input>

    <output>
        <fcd-output value="runs/fcd_expert_glosa/episode_00055_seed_97.fcd.xml"/>
    </output>

    <time>
        <begin value="0"/>
        <end value="900"/>
        <step-length value="0.5"/>
    </time>

    <report>
        <no-warnings value="true"/>
    </report>

    <traci_server>
        <remote-port value="37703"/>
    </traci_server>

    <random_number>
        <seed value="97"/>
    </random_number>

</sumoConfiguration>
-->

<fcd-export xmlns:xsi="http://www.w3.org/2001/XMLSchema-instance" xsi:noNamespaceSchemaLocation="http://sumo.dlr.de/xsd/fcd_file.xsd">
    <timestep time="0.00"/>
    <timestep time="0.50"/>
    <timestep time="1.00"/>
    <timestep time="1.50"/>
    <timestep time="2.00"/>
    <timestep time="2.50"/>
    <timestep time="3.00"/>
    <timestep time="3.50"/>
    <timestep time="4.00"/>
    <timestep time="4.50"/>
    <timestep time="5.00"/>
    <timestep time="5.50"/>
    <timestep time="6.00"/>
    <timestep time="6.50"/>
    <timestep time="7.00"/>
    <timestep time="7.50"/>
    <timestep time="8.00"/>
    <timestep time="8.50"/>
    <timestep time="9.00"/>
    <timestep time="9.50"/>
    <timestep time="10.00"/>
    <timestep time="10.50"/>
    <timestep time="11.00"/>
    <timestep time="11.50"/>
    <timestep time="12.00"/>
    <timestep time="12.50"/>
    <timestep time="13.00"/>
    <timestep time="13.50"/>
    <timestep time="14.00"/>
    <timestep time="14.50"/>
    <timestep time="15.00"/>
    <timestep time="15.50">
        <vehicle id="background.0" x="5.10" y="-1.60" angle="90.00" type="human" speed="13.89" pos="5.10" lane="e0_0" slope="0.00"/>
    </timestep>
    <timestep time="16.00">
        <vehicle id="background.0" x="11.86" y="-1.60" angle="90.00" type="human" speed="13.52" pos="11.86" lane="e0_0" slope="0.00"/>
    </timestep>
    <timestep time="16.50">
        <vehicle id="background.0" x="18.73" y="-1.60" angle="90.00" type="human" speed="13.73" pos="18.73" lane="e0_0" slope="0.00"/>
    </timestep>
    <timestep time="17.00">
        <vehicle id="background.0" x="25.53" y="-1.60" angle="90.00" type="human" speed="13.61" pos="25.53" lane="e0_0" slope="0.00"/>
    </timestep>
    <timestep time="17.50">
        <vehicle id="background.0" x="32.47" y="-1.60" angle="90.00" type="human" speed="13.89" pos="32.47" lane="e0_0" slope="0.00"/>
    </timestep>
    <timestep time="18.00">
        <vehicle id="background.0" x="39.34" y="-1.60" angle="90.00" type="human" speed="13.74" pos="39.34" lane="e0_0" slope="0.00"/>
    </timestep>
    <timestep time="18.50">
        <vehicle id="background.0" x="46.25" y="-1.60" angle="90.00" type="human" speed="13.82" pos="46.25" lane="e0_0" slope="0.00"/>
    </timestep>
    <timestep time="19.00">
        <vehicle id="background.0" x="53.00" y="-1.60" angle="90.00" type="human" speed="13.50" pos="53.00" lane="e0_0" slope="0.00"/>
    </timestep>
    <timestep time="19.50">
        <vehicle id="background.0" x="59.75" y="-1.60" angle="90.00" type="human" speed="13.50" pos="59.75" lane="e0_0" slope="0.00"/>
    </timestep>
    <timestep time="20.00">
        <vehicle id="background.0" x="66.58" y="-1.60" angle="90.00" type="human" speed="13.64" pos="66.58" lane="e0_0" slope="0.00"/>
    </timestep>
    <timestep time="20.50">
        <vehicle id="background.0" x="73.42" y="-1.60" angle="90.00" type="human" speed="13.69" pos="73.42" lane="e0_0" slope="0.00"/>
    </timestep>
    <timestep time="21.00">
        <vehicle id="background.0" x="80.33" y="-1.60" angle="90.00" type="human" speed="13.83" pos="80.33" lane="e0_0" slope="0.00"/>
    </timestep>
    <timestep time="21.50">
        <vehicle id="background.0" x="87.26" y="-1.60" angle="90.00" type="human" speed="13.85" pos="87.26" lane="e0_0" slope="0.00"/>
    </timestep>
    <timestep time="22.00">
        <vehicle id="background.0" x="94.11" y="-1.60" angle="90.00" type="human" speed="13.70" pos="94.11" lane="e0_0" slope="0.00"/>
    </timestep>
    <timestep time="22.50">
        <vehicle id="background.0" x="100.97" y="-1.60" angle="90.00" type="human" speed="13.72" pos="100.97" lane="e0_0" slope="0.00"/>
    </timestep>
    <timestep time="23.00">
        <vehicle id="background.0" x="107.81" y="-1.60" angle="90.00" type="human" speed="13.69" pos="107.81" lane="e0_0" slope="0.00"/>
    </timestep>
    <timestep time="23.50">
        <vehicle id="background.0" x="114.58" y="-1.60" angle="90.00" type="human" speed="13.53" pos="114.58" lane="e0_0" slope="0.00"/>
    </timestep>
    <timestep time="24.00">
        <vehicle id="background.0" x="121.44" y="-1.60" angle="90.00" type="human" speed="13.72" pos="121.44" lane="e0_0" slope="0.00"/>
    </timestep>
    <timestep time="24.50">
        <vehicle id="background.0" x="128.32" y="-1.60" angle="90.00" type="human" speed="13.76" pos="128.32" lane="e0_0" slope="0.00"/>
    </timestep>
    <timestep time="25.00">
        <vehicle id="background.0" x="135.24" y="-1.60" angle="90.00" type="human" speed="13.85" pos="135.24" lane="e0_0" slope="0.00"/>
    </timestep>
    <timestep time="25.50">
        <vehicle id="background.0" x="141.97" y="-1.60" angle="90.00" type="human" speed="13.46" pos="141.97" lane="e0_0" slope="0.00"/>
        <vehicle id="background.1" x="5.10" y="-1.60" angle="90.00" type="human" speed="13.69" pos="5.10" lane="e0_0" slope="0.00"/>
    </timestep>
    <timestep time="26.00">
        <vehicle id="background.0" x="148.83" y="-1.60" angle="90.00" type="human" speed="13.71" pos="148.83" lane="e0_0" slope="0.00"/>
        <vehicle id="background.1" x="11.69" y="-1.60" angle="90.00" type="human" speed="13.19" pos="11.69" lane="e0_0" slope="0.00"/>
    </timestep>
    <timestep time="26.50">
        <vehicle id="background.0" x="155.67" y="-1.60" angle="90.00" type="human" speed="13.69" pos="155.67" lane="e0_0" slope="0.00"/>
        <vehicle id="background.1" x="18.40" y="-1.60" angle="90.00" type="human" speed="13.41" pos="18.40" lane="e0_0" slope="0.00"/>
    </timestep>
    <timestep time="27.00">
        <vehicle id="background.0" x="162.38" y="-1.60" angle="90.00" type="human" speed="13.42" pos="162.38" lane="e0_0" slope="0.00"/>
        <vehicle id="background.1" x="25.10" y="-1.60" angle="90.00" type="human" speed="13.40" pos="25.10" lane="e0_0" slope="0.00"/>
    </timestep>
    <timestep time="27.50">
        <vehicle id="background.0" x="169.25" y="-1.60" angle="90.00" type="human" speed="13.74" pos="169.25" lane="e0_0" slope="0.00"/>
        <vehicle id="background.1" x="31.83" y="-1.60" angle="90.00" type="human" speed="13.45" pos="31.83" lane="e0_0" slope="0.00"/>
    </timestep>
    <timestep time="28.00">
        <vehicle id="background.0" x="175.99" y="-1.60" angle="90.00" type="human" speed="13.47" pos="175.99" lane="e0_0" slope="0.00"/>
        <vehicle id="background.1" x="38.57" y="-1.60" angle="90.00" type="human" speed="13.49" pos="38.57" lane="e0_0" slope="0.00"/>
    </timestep>
    <timestep time="28.50">
        <vehicle id="background.0" x="182.69" y="-1.60" angle="90.00" type="human" speed="13.40" pos="182.69" lane="e0_0" slope="0.00"/>
        <vehicle id="background.1" x="45.24" y="-1.60" angle="90.00" type="human" speed="13.33" pos="45.24" lane="e0_0" slope="0.00"/>
    </timestep>
    <timestep time="29.00">
        <vehicle id="background.0" x="189.53" y="-1.60" angle="90.00" type="human" speed="13.68" pos="189.53" lane="e0_0" slope="0.00"/>
        <vehicle id="background.1" x="51.91" y="-1.60" angle="90.00" type="human" speed="13.35" pos="51.91" lane="e0_0" slope="0.00"/>
    </timestep>
    <timestep time="29.50">
        <vehicle id="background.0" x="196.30" y="-1.60" angle="90.00" type="human" speed="13.54" pos="196.30" lane="e0_0" slope="0.00"/>
        <vehicle id="background.1" x="58.54" y="-1.60" angle="90.00" type="human" speed="13.25" pos="58.54" lane="e0_0" slope="0.00"/>
    </timestep>
    <timestep time="30.00">
        <vehicle id="background.0" x="203.00" y="-1.60" angle="90.00" type="human" speed="13.41" pos="203.00" lane="e0_0" slope="0.00"/>
        <vehicle id="background.1" x="65.18" y="-1.60" angle="90.00" type="human" speed="13.28" pos="65.18" lane="e0_0" slope="0.00"/>
    </timestep>
    <timestep time="30.50">
        <vehicle id="background.0" x="209.84" y="-1.60" angle="90.00" type="human" speed="13.67" pos="209.84" lane="e0_0" slope="0.00"/>
        <vehicle id="background.1" x="71.99" y="-1.60" angle="90.00" type="human" speed="13.63" pos="71.99" lane="e0_0" slope="0.00"/>
    </timestep>
    <timestep time="31.00">
        <vehicle id="background.0" x="216.61" y="-1.60" angle="90.00" type="human" speed="13.55" pos="216.61" lane="e0_0" slope="0.00"/>
        <vehicle id="background.1" x="78.61" y="-1.60" angle="90.00" type="human" speed="13.24" pos="78.61" lane="e0_0" slope="0.00"/>
    </timestep>
    <timestep time="31.50">
        <vehicle id="background.0" x="223.48" y="-1.60" angle="90.00" type="human" speed="13.74" pos="223.48" lane="e0_0" slope="0.00"/>
        <vehicle id="background.1" x="85.30" y="-1.60" angle="90.00" type="human" speed="13.37" pos="85.30" lane="e0_0" slope="0.00"/>
    </timestep>
    <timestep time="32.00">
        <vehicle id="background.0" x="230.18" y="-1.60" angle="90.00" type="human" speed="13.40" pos="230.18" lane="e0_0" slope="0.00"/>
        <vehicle id="background.1" x="92.09" y="-1.60" angle="90.00" type="human" speed="13.59" pos="92.09" lane="e0_0" slope="0.00"/>
    </timestep>
    <timestep time="32.50">
        <vehicle id="background.0" x="236.95" y="-1.60" angle="90.00" type="human" speed="13.54" pos="236.95" lane="e0_0" slope="0.00"/>
        <vehicle id="background.1" x="98.81" y="-1.60" angle="90.00" type="human" speed="13.43" pos="98.81" lane="e0_0" slope="0.00"/>
    </timestep>
    <timestep time="33.00">
        <vehicle id="background.0" x="243.89" y="-1.60" angle="90.00" type="human" speed="13.87" pos="243.89" lane="e0_0" slope="0.00"/>
        <vehicle id="background.1" x="105.40" y="-1.60" angle="90.00" type="human" speed="13.20" pos="105.40" lane="e0_0" slope="0.00"/>
    </timestep>
    <timestep time="33.50">
        <vehicle id="background.0" x="250.80" y="-1.60" angle="90.00" type="human" speed="13.82" pos="250.80" lane="e0_0" slope="0.00"/>
        <vehicle id="background.1" x="112.13" y="-1.60" angle="90.00" type="human" speed="13.45" pos="112.13" lane="e0_0" slope="0.00"/>
    </timestep>
    <timestep time="34.00">
        <vehicle id="background.0" x="257.68" y="-1.60" angle="90.00" type="human" speed="13.76" pos="257.68" lane="e0_0" slope="0.00"/>
        <vehicle id="background.1" x="118.77" y="-1.60" angle="90.00" type="human" speed="13.28" pos="118.77" lane="e0_0" slope="0.00"/>
    </timestep>
    <timestep time="34.50">
        <vehicle id="background.0" x="264.41" y="-1.60" angle="90.00" type="human" speed="13.45" pos="264.41" lane="e0_0" slope="0.00"/>
        <vehicle id="background.1" x="125.57" y="-1.60" angle="90.00" type="human" speed="13.60" pos="125.57" lane="e0_0" slope="0.00"/>
    </timestep>
    <timestep time="35.00">
        <vehicle id="background.0" x="271.14" y="-1.60" angle="90.00" type="human" speed="13.46" pos="271.14" lane="e0_0" slope="0.00"/>
        <vehicle id="background.1" x="132.23" y="-1.60" angle="90.00" type="human" speed="13.32" pos="132.23" lane="e0_0" slope="0.00"/>
        <vehicle id="background.2" x="5.10" y="-1.60" angle="90.00" type="human" speed="11.40" pos="5.10" lane="e0_0" slope="0.00"/>
    </timestep>
    <timestep time="35.50">
        <vehicle id="background.0" x="277.92" y="-1.60" angle="90.00" type="human" speed="13.56" pos="277.92" lane="e0_0" slope="0.00"/>
        <vehicle id="background.1" x="139.03" y="-1.60" angle="90.00" type="human" speed="13.60" pos="139.03" lane="e0_0" slope="0.00"/>
        <vehicle id="background.2" x="10.59" y="-1.60" angle="90.00" type="human" speed="10.99" pos="10.59" lane="e0_0" slope="0.00"/>
    </timestep>
    <timestep time="36.00">
        <vehicle id="background.0" x="284.72" y="-1.60" angle="90.00" type="human" speed="13.59" pos="284.72" lane="e0_0" slope="0.00"/>
        <vehicle id="background.1" x="145.74" y="-1.60" angle="90.00" type="human" speed="13.41" pos="145.74" lane="e0_0" slope="0.00"/>
        <vehicle id="background.2" x="16.26" y="-1.60" angle="90.00" type="human" speed="11.33" pos="16.26" lane="e0_0" slope="0.00"/>
    </timestep>
    <timestep time="36.50">
        <vehicle id="background.0" x="291.53" y="-1.60" angle="90.00" type="human" speed="13.63" pos="291.53" lane="e0_0" slope="0.00"/>
        <vehicle id="background.1" x="152.38" y="-1.60" angle="90.00" type="human" speed="13.29" pos="152.38" lane="e0_0" slope="0.00"/>
        <vehicle id="background.2" x="21.81" y="-1.60" angle="90.00" type="human" speed="11.10" pos="21.81" lane="e0_0" slope="0.00"/>
    </timestep>
    <timestep time="37.00">
        <vehicle id="background.0" x="298.26" y="-1.60" angle="90.00" type="human" speed="13.47" pos="298.26" lane="e0_0" slope="0.00"/>
        <vehicle id="background.1" x="159.18" y="-1.60" angle="90.00" type="human" speed="13.60" pos="159.18" lane="e0_0" slope="0.00"/>
        <vehicle id="background.2" x="27.43" y="-1.60" angle="90.00" type="human" speed="11.25" pos="27.43" lane="e0_0" slope="0.00"/>
    </timestep>
    <timestep time="37.50">
        <vehicle id="background.0" x="304.87" y="-1.60" angle="90.00" type="human" speed="13.41" pos="4.87" lane="e1_0" slope="0.00"/>
        <vehicle id="background.1" x="165.78" y="-1.60" angle="90.00" type="human" speed="13.20" pos="165.78" lane="e0_0" slope="0.00"/>
        <vehicle id="background.2" x="33.09" y="-1.60" angle="90.00" type="human" speed="11.31" pos="33.09" lane="e0_0" slope="0.00"/>
    </timestep>
    <timestep time="38.00">
        <vehicle id="background.0" x="311.64" y="-1.60" angle="90.00" type="human" speed="13.55" pos="11.64" lane="e1_0" slope="0.00"/>
        <vehicle id="background.1" x="172.40" y="-1.60" angle="90.00" type="human" speed="13.23" pos="172.40" lane="e0_0" slope="0.00"/>
        <vehicle id="background.2" x="38.67" y="-1.60" angle="90.00" type="human" speed="11.16" pos="38.67" lane="e0_0" slope="0.00"/>
    </timestep>
    <timestep time="38.50">
        <vehicle id="background.0" x="318.41" y="-1.60" angle="90.00" type="human" speed="13.53" pos="18.41" lane="e1_0" slope="0.00"/>
        <vehicle id="background.1" x="179.22" y="-1.60" angle="90.00" type="human" speed="13.65" pos="179.22" lane="e0_0" slope="0.00"/>
        <vehicle id="background.2" x="44.24" y="-1.60" angle="90.00" type="human" speed="11.14" pos="44.24" lane="e0_0" slope="0.00"/>
    </timestep>
    <timestep time="39.00">
        <vehicle id="background.0" x="325.23" y="-1.60" angle="90.00" type="human" speed="13.65" pos="25.23" lane="e1_0" slope="0.00"/>
        <vehicle id="background.1" x="185.98" y="-1.60" angle="90.00" type="human" speed="13.51" pos="185.98" lane="e0_0" slope="0.00"/>
        <vehicle id="background.2" x="49.73" y="-1.60" angle="90.00" type="human" speed="11.00" pos="49.73" lane="e0_0" slope="0.00"/>
    </timestep>
    <timestep time="39.50">
        <vehicle id="background.0" x="331.97" y="-1.60" angle="90.00" type="human" speed="13.47" pos="31.97" lane="e1_0" slope="0.00"/>
        <vehicle id="background.1" x="192.70" y="-1.60" angle="90.00" type="human" speed="13.45" pos="192.70" lane="e0_0" slope="0.00"/>
        <vehicle id="background.2" x="55.19" y="-1.60" angle="90.00" type="human" speed="10.90" pos="55.19" lane="e0_0" slope="0.00"/>
    </timestep>
    <timestep time="40.00">
        <vehicle id="background.0" x="338.71" y="-1.60" angle="90.00" type="human" speed="13.48" pos="38.71" lane="e1_0" slope="0.00"/>
        <vehicle id="background.1" x="199.50" y="-1.60" angle="90.00" type="human" speed="13.60" pos="199.50" lane="e0_0" slope="0.00"/>
        <vehicle id="background.2" x="60.71" y="-1.60" angle="90.00" type="human" speed="11.04" pos="60.71" lane="e0_0" slope="0.00"/>
    </timestep>
    <timestep time="40.50">
        <vehicle id="background.0" x="345.47" y="-1.60" angle="90.00" type="human" speed="13.52" pos="45.47" lane="e1_0" slope="0.00"/>
        <vehicle id="background.1" x="206.23" y="-1.60" angle="90.00" type="human" speed="13.46" pos="206.23" lane="e0_0" slope="0.00"/>
        <vehicle id="background.2" x="66.30" y="-1.60" angle="90.00" type="human" speed="11.18" pos="66.30" lane="e0_0" slope="0.00"/>
    </timestep>
    <timestep time="41.00">
        <vehicle id="background.1" x="212.95" y="-1.60" angle="90.00" type="human" speed="13.43" pos="212.95" lane="e0_0" slope="0.00"/>
        <vehicle id="background.2" x="71.98" y="-1.60" angle="90.00" type="human" speed="11.36" pos="71.98" lane="e0_0" slope="0.00"/>
    </timestep>
    <timestep time="41.50">
        <vehicle id="background.1" x="219.73" y="-1.60" angle="90.00" type="human" speed="13.57" pos="219.73" lane="e0_0" slope="0.00"/>
        <vehicle id="background.2" x="77.66" y="-1.60" angle="90.00" type="human" speed="11.36" pos="77.66" lane="e0_0" slope="0.00"/>
    </timestep>
    <timestep time="42.00">
        <vehicle id="background.1" x="226.48" y="-1.60" angle="90.00" type="human" speed="13.49" pos="226.48" lane="e0_0" slope="0.00"/>
        <vehicle id="background.2" x="83.35" y="-1.60" angle="90.00" type="human" speed="11.39" pos="83.35" lane="e0_0" slope="0.00"/>
    </timestep>
    <timestep time="42.50">
        <vehicle id="background.1" x="233.26" y="-1.60" angle="90.00" type="human" speed="13.55" pos="233.26" lane="e0_0" slope="0.00"/>
        <vehicle id="background.2" x="88.94" y="-1.60" angle="90.00" type="human" speed="11.18" pos="88.94" lane="e0_0" slope="0.00"/>
    </timestep>
    <timestep time="43.00">
        <vehicle id="background.1" x="239.85" y="-1.60" angle="90.00" type="human" speed="13.19" pos="239.85" lane="e0_0" slope="0.00"/>
        <vehicle id="background.2" x="94.60" y="-1.60" angle="90.00" type="human" speed="11.31" pos="94.60" lane="e0_0" slope="0.00"/>
    </timestep>
    <timestep time="43.50">
        <vehicle id="background.1" x="246.64" y="-1.60" angle="90.00" type="human" speed="13.57" pos="246.64" lane="e0_0" slope="0.00"/>
        <vehicle id="background.2" x="100.25" y="-1.60" angle="90.00" type="human" speed="11.30" pos="100.25" lane="e0_0" slope="0.00"/>
    </timestep>
    <timestep time="44.00">
        <vehicle id="background.1" x="253.39" y="-1.60" angle="90.00" type="human" speed="13.51" pos="253.39" lane="e0_0" slope="0.00"/>
        <vehicle id="background.2" x="105.94" y="-1.60" angle="90.00" type="human" speed="11.39" pos="105.94" lane="e0_0" slope="0.00"/>
    </timestep>
    <timestep time="44.50">
        <vehicle id="background.1" x="259.99" y="-1.60" angle="90.00" type="human" speed="13.19" pos="259.99" lane="e0_0" slope="0.00"/>
        <vehicle id="background.2" x="111.43" y="-1.60" angle="90.00" type="human" speed="10.98" pos="111.43" lane="e0_0" slope="0.00"/>
    </timestep>
    <timestep time="45.00">
        <vehicle id="background.1" x="266.61" y="-1.60" angle="90.00" type="human" speed="13.24" pos="266.61" lane="e0_0" slope="0.00"/>
        <vehicle id="background.2" x="116.98" y="-1.60" angle="90.00" type="human" speed="11.09" pos="116.98" lane="e0_0" slope="0.00"/>
    </timestep>
    <timestep time="45.50">
        <vehicle id="background.1" x="273.21" y="-1.60" angle="90.00" type="human" speed="13.21" pos="273.21" lane="e0_0" slope="0.00"/>
        <vehicle id="background.2" x="122.55" y="-1.60" angle="90.00" type="human" speed="11.15" pos="122.55" lane="e0_0" slope="0.00"/>
    </timestep>
    <timestep time="46.00">
        <vehicle id="background.1" x="279.87" y="-1.60" angle="90.00" type="human" speed="13.31" pos="279.87" lane="e0_0" slope="0.00"/>
        <vehicle id="background.2" x="128.17" y="-1.60" angle="90.00" type="human" speed="11.23" pos="128.17" lane="e0_0" slope="0.00"/>
    </timestep>
    <timestep time="46.50">
        <vehicle id="background.1" x="285.68" y="-1.60" angle="90.00" type="human" speed="11.63" pos="285.68" lane="e0_0" slope="0.00"/>
        <vehicle id="background.2" x="133.69" y="-1.60" angle="90.00" type="human" speed="11.03" pos="133.69" lane="e0_0" slope="0.00"/>
    </timestep>
    <timestep time="47.00">
        <vehicle id="background.1" x="290.42" y="-1.60" angle="90.00" type="human" speed="9.47" pos="290.42" lane="e0_0" slope="0.00"/>
        <vehicle id="background.2" x="139.38" y="-1.60" angle="90.00" type="human" speed="11.38" pos="139.38" lane="e0_0" slope="0.00"/>
    </timestep>
    <timestep time="47.50">
        <vehicle id="background.1" x="294.07" y="-1.60" angle="90.00" type="human" speed="7.31" pos="294.07" lane="e0_0" slope="0.00"/>
        <vehicle id="background.2" x="145.00" y="-1.60" angle="90.00" type="human" speed="11.26" pos="145.00" lane="e0_0" slope="0.00"/>
    </timestep>
    <timestep time="48.00">
        <vehicle id="background.1" x="296.70" y="-1.60" angle="90.00" type="human" speed="5.26" pos="296.70" lane="e0_0" slope="0.00"/>
        <vehicle id="background.2" x="150.65" y="-1.60" angle="90.00" type="human" speed="11.30" pos="150.65" lane="e0_0" slope="0.00"/>
    </timestep>
    <timestep time="48.50">
        <vehicle id="background.1" x="298.32" y="-1.60" angle="90.00" type="human" speed="3.24" pos="298.32" lane="e0_0" slope="0.00"/>
        <vehicle id="background.2" x="156.33" y="-1.60" angle="90.00" type="human" speed="11.35" pos="156.33" lane="e0_0" slope="0.00"/>
    </timestep>
    <timestep time="49.00">
        <vehicle id="background.1" x="298.89" y="-1.60" angle="90.00" type="human" speed="1.14" pos="298.89" lane="e0_0" slope="0.00"/>
        <vehicle id="background.2" x="161.94" y="-1.60" angle="90.00" type="human" speed="11.22" pos="161.94" lane="e0_0" slope="0.00"/>
    </timestep>
    <timestep time="49.50">
        <vehicle id="background.1" x="298.98" y="-1.60" angle="90.00" type="human" speed="0.19" pos="298.98" lane="e0_0" slope="0.00"/>
        <vehicle id="background.2" x="167.57" y="-1.60" angle="90.00" type="human" speed="11.27" pos="167.57" lane="e0_0" slope="0.00"/>
    </timestep>
    <timestep time="50.00">
        <vehicle id="background.1" x="299.00" y="-1.60" angle="90.00" type="human" speed="0.03" pos="299.00" lane="e0_0" slope="0.00"/>
        <vehicle id="background.2" x="173.26" y="-1.60" angle="90.00" type="human" speed="11.38" pos="173.26" lane="e0_0" slope="0.00"/>
    </timestep>
    <timestep time="50.50">
        <vehicle id="background.1" x="299.00" y="-1.60" angle="90.00" type="human" speed="0.00" pos="299.00" lane="e0_0" slope="0.00"/>
        <vehicle id="background.2" x="178.91" y="-1.60" angle="90.00" type="human" speed="11.29" pos="178.91" lane="e0_0" slope="0.00"/>
    </timestep>
    <timestep time="51.00">
        <vehicle id="background.1" x="299.00" y="-1.60" angle="90.00" type="human" speed="0.00" pos="299.00" lane="e0_0" slope="0.00"/>
        <vehicle id="background.2" x="184.52" y="-1.60" angle="90.00" type="human" speed="11.22" pos="184.52" lane="e0_0" slope="0.00"/>
    </timestep>
    <timestep time="51.50">
        <vehicle id="background.1" x="299.00" y="-1.60" angle="90.00" type="human" speed="0.00" pos="299.00" lane="e0_0" slope="0.00"/>
        <vehicle id="background.2" x="190.09" y="-1.60" angle="90.00" type="human" speed="11.15" pos="190.09" lane="e0_0" slope="0.00"/>
    </timestep>
    <timestep time="52.00">
        <vehicle id="background.1" x="299.00" y="-1.60" angle="90.00" type="human" speed="0.00" pos="299.00" lane="e0_0" slope="0.00"/>
        <vehicle id="background.2" x="195.70" y="-1.60" angle="90.00" type="human" speed="11.21" pos="195.70" lane="e0_0" slope="0.00"/>
    </timestep>
    <timestep time="52.50">
        <vehicle id="background.1" x="299.00" y="-1.60" angle="90.00" type="human" speed="0.00" pos="299.00" lane="e0_0" slope="0.00"/>
        <vehicle id="background.2" x="201.23" y="-1.60" angle="90.00" type="human" speed="11.07" pos="201.23" lane="e0_0" slope="0.00"/>
    </timestep>
    <timestep time="53.00">
        <vehicle id="background.1" x="299.00" y="-1.60" angle="90.00" type="human" speed="0.00" pos="299.00" lane="e0_0" slope="0.00"/>
        <vehicle id="background.2" x="206.82" y="-1.60" angle="90.00" type="human" speed="11.17" pos="206.82" lane="e0_0" slope="0.00"/>
    </timestep>
    <timestep time="53.50">
        <vehicle id="background.1" x="299.00" y="-1.60" angle="90.00" type="human" speed="0.00" pos="299.00" lane="e0_0" slope="0.00"/>
        <vehicle id="background.2" x="212.41" y="-1.60" angle="90.00" type="human" speed="11.18" pos="212.41" lane="e0_0" slope="0.00"/>
    </timestep>
    <timestep time="54.00">
        <vehicle id="background.1" x="299.00" y="-1.60" angle="90.00" type="human" speed="0.00" pos="299.00" lane="e0_0" slope="0.00"/>
        <vehicle id="background.2" x="218.03" y="-1.60" angle="90.00" type="human" speed="11.25" pos="218.03" lane="e0_0" slope="0.00"/>
    </timestep>
    <timestep time="54.50">
        <vehicle id="background.1" x="299.00" y="-1.60" angle="90.00" type="human" speed="0.00" pos="299.00" lane="e0_0" slope="0.00"/>
        <vehicle id="background.2" x="223.65" y="-1.60" angle="90.00" type="human" speed="11.23" pos="223.65" lane="e0_0" slope="0.00"/>
    </timestep>
    <timestep time="55.00">
        <vehicle id="background.1" x="299.00" y="-1.60" angle="90.00" type="human" speed="0.00" pos="299.00" lane="e0_0" slope="0.00"/>
        <vehicle id="background.2" x="229.25" y="-1.60" angle="90.00" type="human" speed="11.21" pos="229.25" lane="e0_0" slope="0.00"/>
    </timestep>
    <timestep time="55.50">
        <vehicle id="background.1" x="299.00" y="-1.60" angle="90.00" type="human" speed="0.00" pos="299.00" lane="e0_0" slope="0.00"/>
        <vehicle id="background.2" x="234.86" y="-1.60" angle="90.00" type="human" speed="11.21" pos="234.86" lane="e0_0" slope="0.00"/>
    </timestep>
    <timestep time="56.00">
        <vehicle id="background.1" x="299.00" y="-1.60" angle="90.00" type="human" speed="0.00" pos="299.00" lane="e0_0" slope="0.00"/>
        <vehicle id="background.2" x="240.48" y="-1.60" angle="90.00" type="human" speed="11.24" pos="240.48" lane="e0_0" slope="0.00"/>
    </timestep>
    <timestep time="56.50">
        <vehicle id="background.1" x="299.00" y="-1.60" angle="90.00" type="human" speed="0.00" pos="299.00" lane="e0_0" slope="0.00"/>
        <vehicle id="background.2" x="246.17" y="-1.60" angle="90.00" type="human" speed="11.39" pos="246.17" lane="e0_0" slope="0.00"/>
    </timestep>
    <timestep time="57.00">
        <vehicle id="background.1" x="299.00" y="-1.60" angle="90.00" type="human" speed="0.00" pos="299.00" lane="e0_0" slope="0.00"/>
        <vehicle id="background.2" x="251.70" y="-1.60" angle="90.00" type="human" speed="11.05" pos="251.70" lane="e0_0" slope="0.00"/>
    </timestep>
    <timestep time="57.50">
        <vehicle id="background.1" x="299.00" y="-1.60" angle="90.00" type="human" speed="0.00" pos="299.00" lane="e0_0" slope="0.00"/>
        <vehicle id="background.2" x="257.35" y="-1.60" angle="90.00" type="human" speed="11.31" pos="257.35" lane="e0_0" slope="0.00"/>
    </timestep>
    <timestep time="58.00">
        <vehicle id="background.1" x="299.00" y="-1.60" angle="90.00" type="human" speed="0.00" pos="299.00" lane="e0_0" slope="0.00"/>
        <vehicle id="background.2" x="262.91" y="-1.60" angle="90.00" type="human" speed="11.11" pos="262.91" lane="e0_0" slope="0.00"/>
    </timestep>
    <timestep time="58.50">
        <vehicle id="background.1" x="299.00" y="-1.60" angle="90.00" type="human" speed="0.00" pos="299.00" lane="e0_0" slope="0.00"/>
        <vehicle id="background.2" x="268.43" y="-1.60" angle="90.00" type="human" speed="11.03" pos="268.43" lane="e0_0" slope="0.00"/>
    </timestep>
    <timestep time="59.00">
        <vehicle id="background.1" x="299.00" y="-1.60" angle="90.00" type="human" speed="0.00" pos="299.00" lane="e0_0" slope="0.00"/>
        <vehicle id="background.2" x="274.09" y="-1.60" angle="90.00" type="human" speed="11.32" pos="274.09" lane="e0_0" slope="0.00"/>
    </timestep>
    <timestep time="59.50">
        <vehicle id="background.1" x="299.00" y="-1.60" angle="90.00" type="human" speed="0.00" pos="299.00" lane="e0_0" slope="0.00"/>
        <vehicle id="background.2" x="278.66" y="-1.60" angle="90.00" type="human" speed="9.15" pos="278.66" lane="e0_0" slope="0.00"/>
    </timestep>
    <timestep time="60.00">
        <vehicle id="background.1" x="299.00" y="-1.60" angle="90.00" type="human" speed="0.00" pos="299.00" lane="e0_0" slope="0.00"/>
        <vehicle id="background.2" x="282.53" y="-1.60" angle="90.00" type="human" speed="7.74" pos="282.53" lane="e0_0" slope="0.00"/>
    </timestep>
    <timestep time="60.50">
        <vehicle id="background.1" x="299.00" y="-1.60" angle="90.00" type="human" speed="0.00" pos="299.00" lane="e0_0" slope="0.00"/>
        <vehicle id="background.2" x="285.44" y="-1.60" angle="90.00" type="human" speed="5.80" pos="285.44" lane="e0_0" slope="0.00"/>
    </timestep>
    <timestep time="61.00">
        <vehicle id="background.1" x="299.00" y="-1.60" angle="90.00" type="human" speed="0.00" pos="299.00" lane="e0_0" slope="0.00"/>