<?xml version="1.0" encoding="UTF-8"?>

<!-- generated on 2026-05-15 22:31:49 by Eclipse SUMO sumo Version 1.24.0
<sumoConfiguration xmlns:xsi="http://www.w3.org/2001/XMLSchema-instance" xsi:noNamespaceSchemaLocation="http://sumo.dlr.de/xsd/sumoConfiguration.xsd">

    <input>
        <net-file value="scenarios/simple_arterial/simple_arterial.net.xml"/>
        <route-files value="scenarios/simple_arterial/simple_arterial_glosa.rou.xml"/>
        <additional-files value="scenarios/simple_arterial/simple_arterial.tls.xml"/>
    </input>

    <output>
        <fcd-output value="runs/fcd_expert_glosa/episode_00009_seed_51.fcd.xml"/>
    </output>

    <time>
        <begin value="0"/>
        <end value="900"/>
        <step-length value="0.5"/>
    </time>

    <report>
        <no-warnings value="true"/>
    </report>

    <traci_server>
        <remote-port value="20678"/>
    </traci_server>

    <random_number>
        <seed value="51"/>
    </random_number>

</sumoConfiguration>
-->

<fcd-export xmlns:xsi="http://www.w3.org/2001/XMLSchema-instance" xsi:noNamespaceSchemaLocation="http://sumo.dlr.de/xsd/fcd_file.xsd">
    <timestep time="0.00"/>
    <timestep time="0.50"/>
    <timestep time="1.00"/>
    <timestep time="1.50"/>
    <timestep time="2.00"/>
    <timestep time="2.50"/>
    <timestep time="3.00"/>
    <timestep time="3.50"/>
    <timestep time="4.00"/>
    <timestep time="4.50"/>
    <timestep time="5.00"/>
    <timestep time="5.50"/>
    <timestep time="6.00"/>
    <timestep time="6.50"/>
    <timestep time="7.00"/>
    <timestep time="7.50"/>
    <timestep time="8.00"/>
    <timestep time="8.50"/>
    <timestep time="9.00"/>
    <timestep time="9.50"/>
    <timestep time="10.00"/>
    <timestep time="10.50"/>
    <timestep time="11.00"/>
    <timestep time="11.50"/>
    <timestep time="12.00"/>
    <timestep time="12.50"/>
    <timestep time="13.00"/>
    <timestep time="13.50"/>
    <timestep time="14.00"/>
    <timestep time="14.50"/>
    <timestep time="15.00"/>
    <timestep time="15.50"/>
    <timestep time="16.00"/>
    <timestep time="16.50"/>
    <timestep time="17.00"/>
    <timestep time="17.50"/>
    <timestep time="18.00"/>
    <timestep time="18.50"/>
    <timestep time="19.00"/>
    <timestep time="19.50"/>
    <timestep time="20.00"/>
    <timestep time="20.50"/>
    <timestep time="21.00"/>
    <timestep time="21.50">
        <vehicle id="background.0" x="5.10" y="-1.60" angle="90.00" type="human" speed="13.89" pos="5.10" lane="e0_0" slope="0.00"/>
    </timestep>
    <timestep time="22.00">
        <vehicle id="background.0" x="11.84" y="-1.60" angle="90.00" type="human" speed="13.48" pos="11.84" lane="e0_0" slope="0.00"/>
    </timestep>
    <timestep time="22.50">
        <vehicle id="background.0" x="18.58" y="-1.60" angle="90.00" type="human" speed="13.48" pos="18.58" lane="e0_0" slope="0.00"/>
    </timestep>
    <timestep time="23.00">
        <vehicle id="background.0" x="25.52" y="-1.60" angle="90.00" type="human" speed="13.88" pos="25.52" lane="e0_0" slope="0.00"/>
    </timestep>
    <timestep time="23.50">
        <vehicle id="background.0" x="32.43" y="-1.60" angle="90.00" type="human" speed="13.82" pos="32.43" lane="e0_0" slope="0.00"/>
    </timestep>
    <timestep time="24.00">
        <vehicle id="background.0" x="39.32" y="-1.60" angle="90.00" type="human" speed="13.78" pos="39.32" lane="e0_0" slope="0.00"/>
    </timestep>
    <timestep time="24.50">
        <vehicle id="background.0" x="46.16" y="-1.60" angle="90.00" type="human" speed="13.68" pos="46.16" lane="e0_0" slope="0.00"/>
        <vehicle id="background.1" x="5.10" y="-1.60" angle="90.00" type="human" speed="13.04" pos="5.10" lane="e0_0" slope="0.00"/>
    </timestep>
    <timestep time="25.00">
        <vehicle id="background.0" x="52.95" y="-1.60" angle="90.00" type="human" speed="13.58" pos="52.95" lane="e0_0" slope="0.00"/>
        <vehicle id="background.1" x="11.41" y="-1.60" angle="90.00" type="human" speed="12.63" pos="11.41" lane="e0_0" slope="0.00"/>
    </timestep>
    <timestep time="25.50">
        <vehicle id="background.0" x="59.87" y="-1.60" angle="90.00" type="human" speed="13.84" pos="59.87" lane="e0_0" slope="0.00"/>
        <vehicle id="background.1" x="17.78" y="-1.60" angle="90.00" type="human" speed="12.72" pos="17.78" lane="e0_0" slope="0.00"/>
    </timestep>
    <timestep time="26.00">
        <vehicle id="background.0" x="66.66" y="-1.60" angle="90.00" type="human" speed="13.58" pos="66.66" lane="e0_0" slope="0.00"/>
        <vehicle id="background.1" x="24.18" y="-1.60" angle="90.00" type="human" speed="12.80" pos="24.18" lane="e0_0" slope="0.00"/>
    </timestep>
    <timestep time="26.50">
        <vehicle id="background.0" x="73.59" y="-1.60" angle="90.00" type="human" speed="13.86" pos="73.59" lane="e0_0" slope="0.00"/>
        <vehicle id="background.1" x="30.49" y="-1.60" angle="90.00" type="human" speed="12.62" pos="30.49" lane="e0_0" slope="0.00"/>
    </timestep>
    <timestep time="27.00">
        <vehicle id="background.0" x="80.29" y="-1.60" angle="90.00" type="human" speed="13.41" pos="80.29" lane="e0_0" slope="0.00"/>
        <vehicle id="background.1" x="37.00" y="-1.60" angle="90.00" type="human" speed="13.03" pos="37.00" lane="e0_0" slope="0.00"/>
    </timestep>
    <timestep time="27.50">
        <vehicle id="background.0" x="86.99" y="-1.60" angle="90.00" type="human" speed="13.40" pos="86.99" lane="e0_0" slope="0.00"/>
        <vehicle id="background.1" x="43.50" y="-1.60" angle="90.00" type="human" speed="13.01" pos="43.50" lane="e0_0" slope="0.00"/>
    </timestep>
    <timestep time="28.00">
        <vehicle id="background.0" x="93.81" y="-1.60" angle="90.00" type="human" speed="13.63" pos="93.81" lane="e0_0" slope="0.00"/>
        <vehicle id="background.1" x="49.97" y="-1.60" angle="90.00" type="human" speed="12.93" pos="49.97" lane="e0_0" slope="0.00"/>
    </timestep>
    <timestep time="28.50">
        <vehicle id="background.0" x="100.60" y="-1.60" angle="90.00" type="human" speed="13.57" pos="100.60" lane="e0_0" slope="0.00"/>
        <vehicle id="background.1" x="56.32" y="-1.60" angle="90.00" type="human" speed="12.69" pos="56.32" lane="e0_0" slope="0.00"/>
    </timestep>
    <timestep time="29.00">
        <vehicle id="background.0" x="107.35" y="-1.60" angle="90.00" type="human" speed="13.51" pos="107.35" lane="e0_0" slope="0.00"/>
        <vehicle id="background.1" x="62.82" y="-1.60" angle="90.00" type="human" speed="13.01" pos="62.82" lane="e0_0" slope="0.00"/>
    </timestep>
    <timestep time="29.50">
        <vehicle id="background.0" x="114.10" y="-1.60" angle="90.00" type="human" speed="13.51" pos="114.10" lane="e0_0" slope="0.00"/>
        <vehicle id="background.1" x="69.18" y="-1.60" angle="90.00" type="human" speed="12.71" pos="69.18" lane="e0_0" slope="0.00"/>
    </timestep>
    <timestep time="30.00">
        <vehicle id="background.0" x="120.94" y="-1.60" angle="90.00" type="human" speed="13.68" pos="120.94" lane="e0_0" slope="0.00"/>
        <vehicle id="background.1" x="75.57" y="-1.60" angle="90.00" type="human" speed="12.79" pos="75.57" lane="e0_0" slope="0.00"/>
    </timestep>
    <timestep time="30.50">
        <vehicle id="background.0" x="127.70" y="-1.60" angle="90.00" type="human" speed="13.51" pos="127.70" lane="e0_0" slope="0.00"/>
        <vehicle id="background.1" x="81.97" y="-1.60" angle="90.00" type="human" speed="12.80" pos="81.97" lane="e0_0" slope="0.00"/>
    </timestep>
    <timestep time="31.00">
        <vehicle id="background.0" x="134.54" y="-1.60" angle="90.00" type="human" speed="13.68" pos="134.54" lane="e0_0" slope="0.00"/>
        <vehicle id="background.1" x="88.38" y="-1.60" angle="90.00" type="human" speed="12.83" pos="88.38" lane="e0_0" slope="0.00"/>
    </timestep>
    <timestep time="31.50">
        <vehicle id="background.0" x="141.25" y="-1.60" angle="90.00" type="human" speed="13.43" pos="141.25" lane="e0_0" slope="0.00"/>
        <vehicle id="background.1" x="94.84" y="-1.60" angle="90.00" type="human" speed="12.91" pos="94.84" lane="e0_0" slope="0.00"/>
        <vehicle id="background.2" x="5.10" y="-1.60" angle="90.00" type="human" speed="13.66" pos="5.10" lane="e0_0" slope="0.00"/>
    </timestep>
    <timestep time="32.00">
        <vehicle id="background.0" x="148.02" y="-1.60" angle="90.00" type="human" speed="13.55" pos="148.02" lane="e0_0" slope="0.00"/>
        <vehicle id="background.1" x="101.24" y="-1.60" angle="90.00" type="human" speed="12.81" pos="101.24" lane="e0_0" slope="0.00"/>
        <vehicle id="background.2" x="11.84" y="-1.60" angle="90.00" type="human" speed="13.47" pos="11.84" lane="e0_0" slope="0.00"/>
    </timestep>
    <timestep time="32.50">
        <vehicle id="background.0" x="154.88" y="-1.60" angle="90.00" type="human" speed="13.72" pos="154.88" lane="e0_0" slope="0.00"/>
        <vehicle id="background.1" x="107.55" y="-1.60" angle="90.00" type="human" speed="12.61" pos="107.55" lane="e0_0" slope="0.00"/>
        <vehicle id="background.2" x="18.58" y="-1.60" angle="90.00" type="human" speed="13.49" pos="18.58" lane="e0_0" slope="0.00"/>
    </timestep>
    <timestep time="33.00">
        <vehicle id="background.0" x="161.73" y="-1.60" angle="90.00" type="human" speed="13.70" pos="161.73" lane="e0_0" slope="0.00"/>
        <vehicle id="background.1" x="113.90" y="-1.60" angle="90.00" type="human" speed="12.70" pos="113.90" lane="e0_0" slope="0.00"/>
        <vehicle id="background.2" x="25.39" y="-1.60" angle="90.00" type="human" speed="13.61" pos="25.39" lane="e0_0" slope="0.00"/>
    </timestep>
    <timestep time="33.50">
        <vehicle id="background.0" x="168.54" y="-1.60" angle="90.00" type="human" speed="13.61" pos="168.54" lane="e0_0" slope="0.00"/>
        <vehicle id="background.1" x="120.34" y="-1.60" angle="90.00" type="human" speed="12.88" pos="120.34" lane="e0_0" slope="0.00"/>
        <vehicle id="background.2" x="32.11" y="-1.60" angle="90.00" type="human" speed="13.44" pos="32.11" lane="e0_0" slope="0.00"/>
    </timestep>
    <timestep time="34.00">
        <vehicle id="background.0" x="175.38" y="-1.60" angle="90.00" type="human" speed="13.68" pos="175.38" lane="e0_0" slope="0.00"/>
        <vehicle id="background.1" x="126.74" y="-1.60" angle="90.00" type="human" speed="12.80" pos="126.74" lane="e0_0" slope="0.00"/>
        <vehicle id="background.2" x="38.75" y="-1.60" angle="90.00" type="human" speed="13.29" pos="38.75" lane="e0_0" slope="0.00"/>
    </timestep>
    <timestep time="34.50">
        <vehicle id="background.0" x="182.08" y="-1.60" angle="90.00" type="human" speed="13.41" pos="182.08" lane="e0_0" slope="0.00"/>
        <vehicle id="background.1" x="133.09" y="-1.60" angle="90.00" type="human" speed="12.71" pos="133.09" lane="e0_0" slope="0.00"/>
        <vehicle id="background.2" x="45.47" y="-1.60" angle="90.00" type="human" speed="13.44" pos="45.47" lane="e0_0" slope="0.00"/>
    </timestep>
    <timestep time="35.00">
        <vehicle id="background.0" x="188.98" y="-1.60" angle="90.00" type="human" speed="13.79" pos="188.98" lane="e0_0" slope="0.00"/>
        <vehicle id="background.1" x="139.44" y="-1.60" angle="90.00" type="human" speed="12.69" pos="139.44" lane="e0_0" slope="0.00"/>
        <vehicle id="background.2" x="52.10" y="-1.60" angle="90.00" type="human" speed="13.25" pos="52.10" lane="e0_0" slope="0.00"/>
    </timestep>
    <timestep time="35.50">
        <vehicle id="background.0" x="195.71" y="-1.60" angle="90.00" type="human" speed="13.47" pos="195.71" lane="e0_0" slope="0.00"/>
        <vehicle id="background.1" x="145.76" y="-1.60" angle="90.00" type="human" speed="12.65" pos="145.76" lane="e0_0" slope="0.00"/>
        <vehicle id="background.2" x="58.78" y="-1.60" angle="90.00" type="human" speed="13.37" pos="58.78" lane="e0_0" slope="0.00"/>
    </timestep>
    <timestep time="36.00">
        <vehicle id="background.0" x="202.56" y="-1.60" angle="90.00" type="human" speed="13.69" pos="202.56" lane="e0_0" slope="0.00"/>
        <vehicle id="background.1" x="152.06" y="-1.60" angle="90.00" type="human" speed="12.59" pos="152.06" lane="e0_0" slope="0.00"/>
        <vehicle id="background.2" x="65.48" y="-1.60" angle="90.00" type="human" speed="13.40" pos="65.48" lane="e0_0" slope="0.00"/>
        <vehicle id="background.3" x="5.10" y="-1.60" angle="90.00" type="human" speed="13.89" pos="5.10" lane="e0_0" slope="0.00"/>
    </timestep>
    <timestep time="36.50">
        <vehicle id="background.0" x="209.27" y="-1.60" angle="90.00" type="human" speed="13.42" pos="209.27" lane="e0_0" slope="0.00"/>
        <vehicle id="background.1" x="158.38" y="-1.60" angle="90.00" type="human" speed="12.64" pos="158.38" lane="e0_0" slope="0.00"/>
        <vehicle id="background.2" x="72.11" y="-1.60" angle="90.00" type="human" speed="13.27" pos="72.11" lane="e0_0" slope="0.00"/>
        <vehicle id="background.3" x="11.93" y="-1.60" angle="90.00" type="human" speed="13.67" pos="11.93" lane="e0_0" slope="0.00"/>
    </timestep>
    <timestep time="37.00">
        <vehicle id="background.0" x="216.07" y="-1.60" angle="90.00" type="human" speed="13.59" pos="216.07" lane="e0_0" slope="0.00"/>
        <vehicle id="background.1" x="164.71" y="-1.60" angle="90.00" type="human" speed="12.67" pos="164.71" lane="e0_0" slope="0.00"/>
        <vehicle id="background.2" x="78.82" y="-1.60" angle="90.00" type="human" speed="13.42" pos="78.82" lane="e0_0" slope="0.00"/>
        <vehicle id="background.3" x="18.86" y="-1.60" angle="90.00" type="human" speed="13.85" pos="18.86" lane="e0_0" slope="0.00"/>
    </timestep>
    <timestep time="37.50">
        <vehicle id="background.0" x="222.83" y="-1.60" angle="90.00" type="human" speed="13.54" pos="222.83" lane="e0_0" slope="0.00"/>
        <vehicle id="background.1" x="171.11" y="-1.60" angle="90.00" type="human" speed="12.80" pos="171.11" lane="e0_0" slope="0.00"/>
        <vehicle id="background.2" x="85.50" y="-1.60" angle="90.00" type="human" speed="13.36" pos="85.50" lane="e0_0" slope="0.00"/>
        <vehicle id="background.3" x="25.70" y="-1.60" angle="90.00" type="human" speed="13.67" pos="25.70" lane="e0_0" slope="0.00"/>
    </timestep>
    <timestep time="38.00">
        <vehicle id="background.0" x="229.53" y="-1.60" angle="90.00" type="human" speed="13.40" pos="229.53" lane="e0_0" slope="0.00"/>
        <vehicle id="background.1" x="177.57" y="-1.60" angle="90.00" type="human" speed="12.92" pos="177.57" lane="e0_0" slope="0.00"/>
        <vehicle id="background.2" x="92.23" y="-1.60" angle="90.00" type="human" speed="13.45" pos="92.23" lane="e0_0" slope="0.00"/>
        <vehicle id="background.3" x="32.42" y="-1.60" angle="90.00" type="human" speed="13.46" pos="32.42" lane="e0_0" slope="0.00"/>
    </timestep>
    <timestep time="38.50">
        <vehicle id="background.0" x="236.34" y="-1.60" angle="90.00" type="human" speed="13.61" pos="236.34" lane="e0_0" slope="0.00"/>
        <vehicle id="background.1" x="184.09" y="-1.60" angle="90.00" type="human" speed="13.03" pos="184.09" lane="e0_0" slope="0.00"/>
        <vehicle id="background.2" x="98.96" y="-1.60" angle="90.00" type="human" speed="13.46" pos="98.96" lane="e0_0" slope="0.00"/>
        <vehicle id="background.3" x="39.26" y="-1.60" angle="90.00" type="human" speed="13.66" pos="39.26" lane="e0_0" slope="0.00"/>
    </timestep>
    <timestep time="39.00">
        <vehicle id="background.0" x="243.11" y="-1.60" angle="90.00" type="human" speed="13.53" pos="243.11" lane="e0_0" slope="0.00"/>
        <vehicle id="background.1" x="190.60" y="-1.60" angle="90.00" type="human" speed="13.02" pos="190.60" lane="e0_0" slope="0.00"/>
        <vehicle id="background.2" x="105.67" y="-1.60" angle="90.00" type="human" speed="13.43" pos="105.67" lane="e0_0" slope="0.00"/>
        <vehicle id="background.3" x="46.08" y="-1.60" angle="90.00" type="human" speed="13.64" pos="46.08" lane="e0_0" slope="0.00"/>
    </timestep>
    <timestep time="39.50">
        <vehicle id="background.0" x="249.88" y="-1.60" angle="90.00" type="human" speed="13.54" pos="249.88" lane="e0_0" slope="0.00"/>
        <vehicle id="background.1" x="196.90" y="-1.60" angle="90.00" type="human" speed="12.61" pos="196.90" lane="e0_0" slope="0.00"/>
        <vehicle id="background.2" x="112.33" y="-1.60" angle="90.00" type="human" speed="13.31" pos="112.33" lane="e0_0" slope="0.00"/>
        <vehicle id="background.3" x="52.94" y="-1.60" angle="90.00" type="human" speed="13.72" pos="52.94" lane="e0_0" slope="0.00"/>
        <vehicle id="background.4" x="5.10" y="-1.60" angle="90.00" type="human" speed="13.89" pos="5.10" lane="e0_0" slope="0.00"/>
    </timestep>
    <timestep time="40.00">
        <vehicle id="background.0" x="256.64" y="-1.60" angle="90.00" type="human" speed="13.54" pos="256.64" lane="e0_0" slope="0.00"/>
        <vehicle id="background.1" x="203.20" y="-1.60" angle="90.00" type="human" speed="12.59" pos="203.20" lane="e0_0" slope="0.00"/>
        <vehicle id="background.2" x="119.01" y="-1.60" angle="90.00" type="human" speed="13.37" pos="119.01" lane="e0_0" slope="0.00"/>
        <vehicle id="background.3" x="59.85" y="-1.60" angle="90.00" type="human" speed="13.83" pos="59.85" lane="e0_0" slope="0.00"/>
        <vehicle id="background.4" x="11.97" y="-1.60" angle="90.00" type="human" speed="13.74" pos="11.97" lane="e0_0" slope="0.00"/>
    </timestep>
    <timestep time="40.50">
        <vehicle id="background.0" x="263.55" y="-1.60" angle="90.00" type="human" speed="13.81" pos="263.55" lane="e0_0" slope="0.00"/>
        <vehicle id="background.1" x="209.51" y="-1.60" angle="90.00" type="human" speed="12.63" pos="209.51" lane="e0_0" slope="0.00"/>
        <vehicle id="background.2" x="125.65" y="-1.60" angle="90.00" type="human" speed="13.26" pos="125.65" lane="e0_0" slope="0.00"/>
        <vehicle id="background.3" x="66.57" y="-1.60" angle="90.00" type="human" speed="13.44" pos="66.57" lane="e0_0" slope="0.00"/>
        <vehicle id="background.4" x="18.75" y="-1.60" angle="90.00" type="human" speed="13.56" pos="18.75" lane="e0_0" slope="0.00"/>
    </timestep>
    <timestep time="41.00">
        <vehicle id="background.0" x="270.34" y="-1.60" angle="90.00" type="human" speed="13.59" pos="270.34" lane="e0_0" slope="0.00"/>
        <vehicle id="background.1" x="215.85" y="-1.60" angle="90.00" type="human" speed="12.68" pos="215.85" lane="e0_0" slope="0.00"/>
        <vehicle id="background.2" x="132.30" y="-1.60" angle="90.00" type="human" speed="13.30" pos="132.30" lane="e0_0" slope="0.00"/>
        <vehicle id="background.3" x="73.38" y="-1.60" angle="90.00" type="human" speed="13.62" pos="73.38" lane="e0_0" slope="0.00"/>
        <vehicle id="background.4" x="25.62" y="-1.60" angle="90.00" type="human" speed="13.73" pos="25.62" lane="e0_0" slope="0.00"/>
    </timestep>
    <timestep time="41.50">
        <vehicle id="background.0" x="277.17" y="-1.60" angle="90.00" type="human" speed="13.65" pos="277.17" lane="e0_0" slope="0.00"/>
        <vehicle id="background.1" x="222.36" y="-1.60" angle="90.00" type="human" speed="13.02" pos="222.36" lane="e0_0" slope="0.00"/>
        <vehicle id="background.2" x="138.90" y="-1.60" angle="90.00" type="human" speed="13.21" pos="138.90" lane="e0_0" slope="0.00"/>
        <vehicle id="background.3" x="80.23" y="-1.60" angle="90.00" type="human" speed="13.70" pos="80.23" lane="e0_0" slope="0.00"/>
        <vehicle id="background.4" x="32.47" y="-1.60" angle="90.00" type="human" speed="13.70" pos="32.47" lane="e0_0" slope="0.00"/>
    </timestep>
    <timestep time="42.00">
        <vehicle id="background.0" x="284.04" y="-1.60" angle="90.00" type="human" speed="13.74" pos="284.04" lane="e0_0" slope="0.00"/>
        <vehicle id="background.1" x="228.75" y="-1.60" angle="90.00" type="human" speed="12.78" pos="228.75" lane="e0_0" slope="0.00"/>
        <vehicle id="background.2" x="145.60" y="-1.60" angle="90.00" type="human" speed="13.41" pos="145.60" lane="e0_0" slope="0.00"/>
        <vehicle id="background.3" x="87.00" y="-1.60" angle="90.00" type="human" speed="13.54" pos="87.00" lane="e0_0" slope="0.00"/>
        <vehicle id="background.4" x="39.28" y="-1.60" angle="90.00" type="human" speed="13.62" pos="39.28" lane="e0_0" slope="0.00"/>
    </timestep>
    <timestep time="42.50">
        <vehicle id="background.0" x="290.88" y="-1.60" angle="90.00" type="human" speed="13.68" pos="290.88" lane="e0_0" slope="0.00"/>
        <vehicle id="background.1" x="235.19" y="-1.60" angle="90.00" type="human" speed="12.87" pos="235.19" lane="e0_0" slope="0.00"/>
        <vehicle id="background.2" x="152.27" y="-1.60" angle="90.00" type="human" speed="13.34" pos="152.27" lane="e0_0" slope="0.00"/>
        <vehicle id="background.3" x="93.93" y="-1.60" angle="90.00" type="human" speed="13.86" pos="93.93" lane="e0_0" slope="0.00"/>
        <vehicle id="background.4" x="46.07" y="-1.60" angle="90.00" type="human" speed="13.59" pos="46.07" lane="e0_0" slope="0.00"/>
    </timestep>
    <timestep time="43.00">
        <vehicle id="background.0" x="297.61" y="-1.60" angle="90.00" type="human" speed="13.46" pos="297.61" lane="e0_0" slope="0.00"/>
        <vehicle id="background.1" x="241.59" y="-1.60" angle="90.00" type="human" speed="12.81" pos="241.59" lane="e0_0" slope="0.00"/>
        <vehicle id="background.2" x="158.88" y="-1.60" angle="90.00" type="human" speed="13.22" pos="158.88" lane="e0_0" slope="0.00"/>
        <vehicle id="background.3" x="100.65" y="-1.60" angle="90.00" type="human" speed="13.43" pos="100.65" lane="e0_0" slope="0.00"/>
        <vehicle id="background.4" x="53.02" y="-1.60" angle="90.00" type="human" speed="13.89" pos="53.02" lane="e0_0" slope="0.00"/>
    </timestep>
    <timestep time="43.50">
        <vehicle id="background.0" x="304.27" y="-1.60" angle="90.00" type="human" speed="13.52" pos="4.27" lane="e1_0" slope="0.00"/>
        <vehicle id="background.1" x="248.04" y="-1.60" angle="90.00" type="human" speed="12.89" pos="248.04" lane="e0_0" slope="0.00"/>
        <vehicle id="background.2" x="165.48" y="-1.60" angle="90.00" type="human" speed="13.19" pos="165.48" lane="e0_0" slope="0.00"/>
        <vehicle id="background.3" x="107.46" y="-1.60" angle="90.00" type="human" speed="13.62" pos="107.46" lane="e0_0" slope="0.00"/>
        <vehicle id="background.4" x="59.74" y="-1.60" angle="90.00" type="human" speed="13.44" pos="59.74" lane="e0_0" slope="0.00"/>
    </timestep>
    <timestep time="44.00">
        <vehicle id="background.0" x="311.00" y="-1.60" angle="90.00" type="human" speed="13.47" pos="11.00" lane="e1_0" slope="0.00"/>
        <vehicle id="background.1" x="254.32" y="-1.60" angle="90.00" type="human" speed="12.56" pos="254.32" lane="e0_0" slope="0.00"/>
        <vehicle id="background.2" x="172.23" y="-1.60" angle="90.00" type="human" speed="13.50" pos="172.23" lane="e0_0" slope="0.00"/>
        <vehicle id="background.3" x="114.37" y="-1.60" angle="90.00" type="human" speed="13.82" pos="114.37" lane="e0_0" slope="0.00"/>
        <vehicle id="background.4" x="66.51" y="-1.60" angle="90.00" type="human" speed="13.54" pos="66.51" lane="e0_0" slope="0.00"/>
    </timestep>
    <timestep time="44.50">
        <vehicle id="background.0" x="317.78" y="-1.60" angle="90.00" type="human" speed="13.55" pos="17.78" lane="e1_0" slope="0.00"/>
        <vehicle id="background.1" x="260.65" y="-1.60" angle="90.00" type="human" speed="12.66" pos="260.65" lane="e0_0" slope="0.00"/>
        <vehicle id="background.2" x="179.04" y="-1.60" angle="90.00" type="human" speed="13.63" pos="179.04" lane="e0_0" slope="0.00"/>
        <vehicle id="background.3" x="121.13" y="-1.60" angle="90.00" type="human" speed="13.53" pos="121.13" lane="e0_0" slope="0.00"/>
        <vehicle id="background.4" x="73.41" y="-1.60" angle="90.00" type="human" speed="13.79" pos="73.41" lane="e0_0" slope="0.00"/>
    </timestep>
    <timestep time="45.00">
        <vehicle id="background.0" x="324.58" y="-1.60" angle="90.00" type="human" speed="13.61" pos="24.58" lane="e1_0" slope="0.00"/>
        <vehicle id="background.1" x="266.99" y="-1.60" angle="90.00" type="human" speed="12.69" pos="266.99" lane="e0_0" slope="0.00"/>
        <vehicle id="background.2" x="185.69" y="-1.60" angle="90.00" type="human" speed="13.30" pos="185.69" lane="e0_0" slope="0.00"/>
        <vehicle id="background.3" x="127.95" y="-1.60" angle="90.00" type="human" speed="13.63" pos="127.95" lane="e0_0" slope="0.00"/>
        <vehicle id="background.4" x="80.16" y="-1.60" angle="90.00" type="human" speed="13.51" pos="80.16" lane="e0_0" slope="0.00"/>
    </timestep>
    <timestep time="45.50">
        <vehicle id="background.0" x="331.32" y="-1.60" angle="90.00" type="human" speed="13.47" pos="31.32" lane="e1_0" slope="0.00"/>
        <vehicle id="background.1" x="273.42" y="-1.60" angle="90.00" type="human" speed="12.85" pos="273.42" lane="e0_0" slope="0.00"/>
        <vehicle id="background.2" x="192.44" y="-1.60" angle="90.00" type="human" speed="13.51" pos="192.44" lane="e0_0" slope="0.00"/>
        <vehicle id="background.3" x="134.69" y="-1.60" angle="90.00" type="human" speed="13.48" pos="134.69" lane="e0_0" slope="0.00"/>
        <vehicle id="background.4" x="86.87" y="-1.60" angle="90.00" type="human" speed="13.41" pos="86.87" lane="e0_0" slope="0.00"/>
    </timestep>
    <timestep time="46.00">
        <vehicle id="background.0" x="338.15" y="-1.60" angle="90.00" type="human" speed="13.66" pos="38.15" lane="e1_0" slope="0.00"/>
        <vehicle id="background.1" x="279.22" y="-1.60" angle="90.00" type="human" speed="11.61" pos="279.22" lane="e0_0" slope="0.00"/>
        <vehicle id="background.2" x="199.27" y="-1.60" angle="90.00" type="human" speed="13.66" pos="199.27" lane="e0_0" slope="0.00"/>
        <vehicle id="background.3" x="141.47" y="-1.60" angle="90.00" type="human" speed="13.56" pos="141.47" lane="e0_0" slope="0.00"/>
        <vehicle id="background.4" x="93.73" y="-1.60" angle="90.00" type="human" speed="13.72" pos="93.73" lane="e0_0" slope="0.00"/>
    </timestep>
    <timestep time="46.50">
        <vehicle id="background.0" x="345.08" y="-1.60" angle="90.00" type="human" speed="13.87" pos="45.08" lane="e1_0" slope="0.00"/>
        <vehicle id="background.1" x="284.27" y="-1.60" angle="90.00" type="human" speed="10.11" pos="284.27" lane="e0_0" slope="0.00"/>
        <vehicle id="background.2" x="206.05" y="-1.60" angle="90.00" type="human" speed="13.56" pos="206.05" lane="e0_0" slope="0.00"/>
        <vehicle id="background.3" x="148.41" y="-1.60" angle="90.00" type="human" speed="13.88" pos="148.41" lane="e0_0" slope="0.00"/>
        <vehicle id="background.4" x="100.56" y="-1.60" angle="90.00" type="human" speed="13.67" pos="100.56" lane="e0_0" slope="0.00"/>
    </timestep>
    <timestep time="47.00">
        <vehicle id="background.1" x="288.58" y="-1.60" angle="90.00" type="human" speed="8.61" pos="288.58" lane="e0_0" slope="0.00"/>
        <vehicle id="background.2" x="212.65" y="-1.60" angle="90.00" type="human" speed="13.19" pos="212.65" lane="e0_0" slope="0.00"/>
        <vehicle id="background.3" x="155.14" y="-1.60" angle="90.00" type="human" speed="13.48" pos="155.14" lane="e0_0" slope="0.00"/>
        <vehicle id="background.4" x="107.44" y="-1.60" angle="90.00" type="human" speed="13.75" pos="107.44" lane="e0_0" slope="0.00"/>
    </timestep>
    <timestep time="47.50">
        <vehicle id="background.1" x="292.13" y="-1.60" angle="90.00" type="human" speed="7.11" pos="292.13" lane="e0_0" slope="0.00"/>
        <vehicle id="background.2" x="219.37" y="-1.60" angle="90.00" type="human" speed="13.44" pos="219.37" lane="e0_0" slope="0.00"/>
        <vehicle id="background.3" x="161.89" y="-1.60" angle="90.00" type="human" speed="13.49" pos="161.89" lane="e0_0" slope="0.00"/>
        <vehicle id="background.4" x="114.27" y="-1.60" angle="90.00" type="human" speed="13.66" pos="114.27" lane="e0_0" slope="0.00"/>
    </timestep>
    <timestep time="48.00">
        <vehicle id="background.1" x="294.94" y="-1.60" angle="90.00" type="human" speed="5.61" pos="294.94" lane="e0_0" slope="0.00"/>
        <vehicle id="background.2" x="225.99" y="-1.60" angle="90.00" type="human" speed="13.23" pos="225.99" lane="e0_0" slope="0.00"/>
        <vehicle id="background.3" x="168.69" y="-1.60" angle="90.00" type="human" speed="13.61" pos="168.69" lane="e0_0" slope="0.00"/>
        <vehicle id="background.4" x="120.96" y="-1.60" angle="90.00" type="human" speed="13.40" pos="120.96" lane="e0_0" slope="0.00"/>
    </timestep>
    <timestep time="48.50">
        <vehicle id="background.1" x="296.99" y="-1.60" angle="90.00" type="human" speed="4.11" pos="296.99" lane="e0_0" slope="0.00"/>
        <vehicle id="background.2" x="232.70" y="-1.60" angle="90.00" type="human" speed="13.42" pos="232.70" lane="e0_0" slope="0.00"/>
        <vehicle id="background.3" x="175.55" y="-1.60" angle="90.00" type="human" speed="13.70" pos="175.55" lane="e0_0" slope="0.00"/>
        <vehicle id="background.4" x="127.78" y="-1.60" angle="90.00" type="human" speed="13.62" pos="127.78" lane="e0_0" slope="0.00"/>
    </timestep>
    <timestep time="49.00">
        <vehicle id="background.1" x="298.30" y="-1.60" angle="90.00" type="human" speed="2.63" pos="298.30" lane="e0_0" slope="0.00"/>
        <vehicle id="background.2" x="239.33" y="-1.60" angle="90.00" type="human" speed="13.27" pos="239.33" lane="e0_0" slope="0.00"/>
        <vehicle id="background.3" x="182.27" y="-1.60" angle="90.00" type="human" speed="13.45" pos="182.27" lane="e0_0" slope="0.00"/>
        <vehicle id="background.4" x="134.52" y="-1.60" angle="90.00" type="human" speed="13.48" pos="134.52" lane="e0_0" slope="0.00"/>
    </timestep>
    <timestep time="49.50">