<?xml version="1.0" encoding="UTF-8"?>

<!-- generated on 2026-05-14 17:06:04 by Eclipse SUMO sumo Version 1.24.0
<sumoConfiguration xmlns:xsi="http://www.w3.org/2001/XMLSchema-instance" xsi:noNamespaceSchemaLocation="http://sumo.dlr.de/xsd/sumoConfiguration.xsd">

    <input>
        <net-file value="scenarios/simple_arterial/simple_arterial.net.xml"/>
        <route-files value="scenarios/simple_arterial/simple_arterial_glosa.rou.xml"/>
        <additional-files value="scenarios/simple_arterial/simple_arterial.tls.xml"/>
    </input>

    <output>
        <fcd-output value="runs/fcd_expert_glosa/episode_00038_seed_80.fcd.xml"/>
    </output>

    <time>
        <begin value="0"/>
        <end value="900"/>
        <step-length value="0.5"/>
    </time>

    <report>
        <no-warnings value="true"/>
    </report>

    <traci_server>
        <remote-port value="37703"/>
    </traci_server>

    <random_number>
        <seed value="80"/>
    </random_number>

</sumoConfiguration>
-->

<fcd-export xmlns:xsi="http://www.w3.org/2001/XMLSchema-instance" xsi:noNamespaceSchemaLocation="http://sumo.dlr.de/xsd/fcd_file.xsd">
    <timestep time="0.00"/>
    <timestep time="0.50"/>
    <timestep time="1.00"/>
    <timestep time="1.50"/>
    <timestep time="2.00"/>
    <timestep time="2.50"/>
    <timestep time="3.00"/>
    <timestep time="3.50"/>
    <timestep time="4.00"/>
    <timestep time="4.50"/>
    <timestep time="5.00"/>
    <timestep time="5.50"/>
    <timestep time="6.00"/>
    <timestep time="6.50"/>
    <timestep time="7.00"/>
    <timestep time="7.50"/>
    <timestep time="8.00"/>
    <timestep time="8.50"/>
    <timestep time="9.00"/>
    <timestep time="9.50"/>
    <timestep time="10.00"/>
    <timestep time="10.50"/>
    <timestep time="11.00"/>
    <timestep time="11.50"/>
    <timestep time="12.00"/>
    <timestep time="12.50"/>
    <timestep time="13.00"/>
    <timestep time="13.50"/>
    <timestep time="14.00"/>
    <timestep time="14.50"/>
    <timestep time="15.00"/>
    <timestep time="15.50"/>
    <timestep time="16.00"/>
    <timestep time="16.50"/>
    <timestep time="17.00"/>
    <timestep time="17.50"/>
    <timestep time="18.00"/>
    <timestep time="18.50"/>
    <timestep time="19.00">
        <vehicle id="background.0" x="5.10" y="-1.60" angle="90.00" type="human" speed="13.89" pos="5.10" lane="e0_0" slope="0.00"/>
    </timestep>
    <timestep time="19.50">
        <vehicle id="background.0" x="11.96" y="-1.60" angle="90.00" type="human" speed="13.71" pos="11.96" lane="e0_0" slope="0.00"/>
    </timestep>
    <timestep time="20.00">
        <vehicle id="background.0" x="18.78" y="-1.60" angle="90.00" type="human" speed="13.65" pos="18.78" lane="e0_0" slope="0.00"/>
    </timestep>
    <timestep time="20.50">
        <vehicle id="background.0" x="25.64" y="-1.60" angle="90.00" type="human" speed="13.72" pos="25.64" lane="e0_0" slope="0.00"/>
    </timestep>
    <timestep time="21.00">
        <vehicle id="background.0" x="32.38" y="-1.60" angle="90.00" type="human" speed="13.48" pos="32.38" lane="e0_0" slope="0.00"/>
    </timestep>
    <timestep time="21.50">
        <vehicle id="background.0" x="39.09" y="-1.60" angle="90.00" type="human" speed="13.42" pos="39.09" lane="e0_0" slope="0.00"/>
    </timestep>
    <timestep time="22.00">
        <vehicle id="background.0" x="45.87" y="-1.60" angle="90.00" type="human" speed="13.56" pos="45.87" lane="e0_0" slope="0.00"/>
    </timestep>
    <timestep time="22.50">
        <vehicle id="background.0" x="52.59" y="-1.60" angle="90.00" type="human" speed="13.43" pos="52.59" lane="e0_0" slope="0.00"/>
    </timestep>
    <timestep time="23.00">
        <vehicle id="background.0" x="59.31" y="-1.60" angle="90.00" type="human" speed="13.44" pos="59.31" lane="e0_0" slope="0.00"/>
    </timestep>
    <timestep time="23.50">
        <vehicle id="background.0" x="66.04" y="-1.60" angle="90.00" type="human" speed="13.47" pos="66.04" lane="e0_0" slope="0.00"/>
    </timestep>
    <timestep time="24.00">
        <vehicle id="background.0" x="72.96" y="-1.60" angle="90.00" type="human" speed="13.83" pos="72.96" lane="e0_0" slope="0.00"/>
    </timestep>
    <timestep time="24.50">
        <vehicle id="background.0" x="79.89" y="-1.60" angle="90.00" type="human" speed="13.86" pos="79.89" lane="e0_0" slope="0.00"/>
    </timestep>
    <timestep time="25.00">
        <vehicle id="background.0" x="86.83" y="-1.60" angle="90.00" type="human" speed="13.88" pos="86.83" lane="e0_0" slope="0.00"/>
    </timestep>
    <timestep time="25.50">
        <vehicle id="background.0" x="93.71" y="-1.60" angle="90.00" type="human" speed="13.77" pos="93.71" lane="e0_0" slope="0.00"/>
    </timestep>
    <timestep time="26.00">
        <vehicle id="background.0" x="100.53" y="-1.60" angle="90.00" type="human" speed="13.65" pos="100.53" lane="e0_0" slope="0.00"/>
    </timestep>
    <timestep time="26.50">
        <vehicle id="background.0" x="107.35" y="-1.60" angle="90.00" type="human" speed="13.64" pos="107.35" lane="e0_0" slope="0.00"/>
    </timestep>
    <timestep time="27.00">
        <vehicle id="background.0" x="114.27" y="-1.60" angle="90.00" type="human" speed="13.84" pos="114.27" lane="e0_0" slope="0.00"/>
    </timestep>
    <timestep time="27.50">
        <vehicle id="background.0" x="121.19" y="-1.60" angle="90.00" type="human" speed="13.85" pos="121.19" lane="e0_0" slope="0.00"/>
    </timestep>
    <timestep time="28.00">
        <vehicle id="background.0" x="127.91" y="-1.60" angle="90.00" type="human" speed="13.44" pos="127.91" lane="e0_0" slope="0.00"/>
    </timestep>
    <timestep time="28.50">
        <vehicle id="background.0" x="134.66" y="-1.60" angle="90.00" type="human" speed="13.50" pos="134.66" lane="e0_0" slope="0.00"/>
    </timestep>
    <timestep time="29.00">
        <vehicle id="background.0" x="141.55" y="-1.60" angle="90.00" type="human" speed="13.78" pos="141.55" lane="e0_0" slope="0.00"/>
    </timestep>
    <timestep time="29.50">
        <vehicle id="background.0" x="148.40" y="-1.60" angle="90.00" type="human" speed="13.69" pos="148.40" lane="e0_0" slope="0.00"/>
    </timestep>
    <timestep time="30.00">
        <vehicle id="background.0" x="155.19" y="-1.60" angle="90.00" type="human" speed="13.59" pos="155.19" lane="e0_0" slope="0.00"/>
    </timestep>
    <timestep time="30.50">
        <vehicle id="background.0" x="162.02" y="-1.60" angle="90.00" type="human" speed="13.67" pos="162.02" lane="e0_0" slope="0.00"/>
    </timestep>
    <timestep time="31.00">
        <vehicle id="background.0" x="168.95" y="-1.60" angle="90.00" type="human" speed="13.86" pos="168.95" lane="e0_0" slope="0.00"/>
    </timestep>
    <timestep time="31.50">
        <vehicle id="background.0" x="175.71" y="-1.60" angle="90.00" type="human" speed="13.51" pos="175.71" lane="e0_0" slope="0.00"/>
    </timestep>
    <timestep time="32.00">
        <vehicle id="background.0" x="182.60" y="-1.60" angle="90.00" type="human" speed="13.79" pos="182.60" lane="e0_0" slope="0.00"/>
    </timestep>
    <timestep time="32.50">
        <vehicle id="background.0" x="189.40" y="-1.60" angle="90.00" type="human" speed="13.61" pos="189.40" lane="e0_0" slope="0.00"/>
    </timestep>
    <timestep time="33.00">
        <vehicle id="background.0" x="196.10" y="-1.60" angle="90.00" type="human" speed="13.39" pos="196.10" lane="e0_0" slope="0.00"/>
    </timestep>
    <timestep time="33.50">
        <vehicle id="background.0" x="202.98" y="-1.60" angle="90.00" type="human" speed="13.77" pos="202.98" lane="e0_0" slope="0.00"/>
    </timestep>
    <timestep time="34.00">
        <vehicle id="background.0" x="209.79" y="-1.60" angle="90.00" type="human" speed="13.61" pos="209.79" lane="e0_0" slope="0.00"/>
    </timestep>
    <timestep time="34.50">
        <vehicle id="background.0" x="216.60" y="-1.60" angle="90.00" type="human" speed="13.62" pos="216.60" lane="e0_0" slope="0.00"/>
    </timestep>
    <timestep time="35.00">
        <vehicle id="background.0" x="223.43" y="-1.60" angle="90.00" type="human" speed="13.66" pos="223.43" lane="e0_0" slope="0.00"/>
    </timestep>
    <timestep time="35.50">
        <vehicle id="background.0" x="230.34" y="-1.60" angle="90.00" type="human" speed="13.82" pos="230.34" lane="e0_0" slope="0.00"/>
    </timestep>
    <timestep time="36.00">
        <vehicle id="background.0" x="237.26" y="-1.60" angle="90.00" type="human" speed="13.84" pos="237.26" lane="e0_0" slope="0.00"/>
    </timestep>
    <timestep time="36.50">
        <vehicle id="background.0" x="244.09" y="-1.60" angle="90.00" type="human" speed="13.67" pos="244.09" lane="e0_0" slope="0.00"/>
    </timestep>
    <timestep time="37.00">
        <vehicle id="background.0" x="250.84" y="-1.60" angle="90.00" type="human" speed="13.50" pos="250.84" lane="e0_0" slope="0.00"/>
    </timestep>
    <timestep time="37.50">
        <vehicle id="background.0" x="257.67" y="-1.60" angle="90.00" type="human" speed="13.66" pos="257.67" lane="e0_0" slope="0.00"/>
    </timestep>
    <timestep time="38.00">
        <vehicle id="background.0" x="264.41" y="-1.60" angle="90.00" type="human" speed="13.48" pos="264.41" lane="e0_0" slope="0.00"/>
    </timestep>
    <timestep time="38.50">
        <vehicle id="background.0" x="271.18" y="-1.60" angle="90.00" type="human" speed="13.53" pos="271.18" lane="e0_0" slope="0.00"/>
    </timestep>
    <timestep time="39.00">
        <vehicle id="background.0" x="278.02" y="-1.60" angle="90.00" type="human" speed="13.69" pos="278.02" lane="e0_0" slope="0.00"/>
    </timestep>
    <timestep time="39.50">
        <vehicle id="background.0" x="284.73" y="-1.60" angle="90.00" type="human" speed="13.41" pos="284.73" lane="e0_0" slope="0.00"/>
    </timestep>
    <timestep time="40.00">
        <vehicle id="background.0" x="291.44" y="-1.60" angle="90.00" type="human" speed="13.42" pos="291.44" lane="e0_0" slope="0.00"/>
    </timestep>
    <timestep time="40.50">
        <vehicle id="background.0" x="298.23" y="-1.60" angle="90.00" type="human" speed="13.58" pos="298.23" lane="e0_0" slope="0.00"/>
    </timestep>
    <timestep time="41.00">
        <vehicle id="background.0" x="304.95" y="-1.60" angle="90.00" type="human" speed="13.64" pos="4.95" lane="e1_0" slope="0.00"/>
    </timestep>
    <timestep time="41.50">
        <vehicle id="background.0" x="311.83" y="-1.60" angle="90.00" type="human" speed="13.75" pos="11.83" lane="e1_0" slope="0.00"/>
    </timestep>
    <timestep time="42.00">
        <vehicle id="background.0" x="318.75" y="-1.60" angle="90.00" type="human" speed="13.85" pos="18.75" lane="e1_0" slope="0.00"/>
    </timestep>
    <timestep time="42.50">
        <vehicle id="background.0" x="325.53" y="-1.60" angle="90.00" type="human" speed="13.57" pos="25.53" lane="e1_0" slope="0.00"/>
    </timestep>
    <timestep time="43.00">
        <vehicle id="background.0" x="332.38" y="-1.60" angle="90.00" type="human" speed="13.69" pos="32.38" lane="e1_0" slope="0.00"/>
    </timestep>
    <timestep time="43.50">
        <vehicle id="background.0" x="339.17" y="-1.60" angle="90.00" type="human" speed="13.58" pos="39.17" lane="e1_0" slope="0.00"/>
    </timestep>
    <timestep time="44.00">
        <vehicle id="background.0" x="345.92" y="-1.60" angle="90.00" type="human" speed="13.50" pos="45.92" lane="e1_0" slope="0.00"/>
    </timestep>
    <timestep time="44.50"/>
    <timestep time="45.00"/>
    <timestep time="45.50"/>
    <timestep time="46.00"/>
    <timestep time="46.50"/>
    <timestep time="47.00"/>
    <timestep time="47.50">
        <vehicle id="background.1" x="5.10" y="-1.60" angle="90.00" type="human" speed="13.89" pos="5.10" lane="e0_0" slope="0.00"/>
    </timestep>
    <timestep time="48.00">
        <vehicle id="background.1" x="11.94" y="-1.60" angle="90.00" type="human" speed="13.68" pos="11.94" lane="e0_0" slope="0.00"/>
    </timestep>
    <timestep time="48.50">
        <vehicle id="background.1" x="18.65" y="-1.60" angle="90.00" type="human" speed="13.42" pos="18.65" lane="e0_0" slope="0.00"/>
    </timestep>
    <timestep time="49.00">
        <vehicle id="background.1" x="25.37" y="-1.60" angle="90.00" type="human" speed="13.44" pos="25.37" lane="e0_0" slope="0.00"/>
    </timestep>
    <timestep time="49.50">
        <vehicle id="background.1" x="32.13" y="-1.60" angle="90.00" type="human" speed="13.51" pos="32.13" lane="e0_0" slope="0.00"/>
    </timestep>
    <timestep time="50.00">
        <vehicle id="background.1" x="38.99" y="-1.60" angle="90.00" type="human" speed="13.73" pos="38.99" lane="e0_0" slope="0.00"/>
    </timestep>
    <timestep time="50.50">
        <vehicle id="background.1" x="45.77" y="-1.60" angle="90.00" type="human" speed="13.55" pos="45.77" lane="e0_0" slope="0.00"/>
    </timestep>
    <timestep time="51.00">
        <vehicle id="background.1" x="52.47" y="-1.60" angle="90.00" type="human" speed="13.40" pos="52.47" lane="e0_0" slope="0.00"/>
    </timestep>
    <timestep time="51.50">
        <vehicle id="background.1" x="59.30" y="-1.60" angle="90.00" type="human" speed="13.66" pos="59.30" lane="e0_0" slope="0.00"/>
    </timestep>
    <timestep time="52.00">
        <vehicle id="background.1" x="66.07" y="-1.60" angle="90.00" type="human" speed="13.53" pos="66.07" lane="e0_0" slope="0.00"/>
    </timestep>
    <timestep time="52.50">
        <vehicle id="background.1" x="72.96" y="-1.60" angle="90.00" type="human" speed="13.78" pos="72.96" lane="e0_0" slope="0.00"/>
    </timestep>
    <timestep time="53.00">
        <vehicle id="background.1" x="79.67" y="-1.60" angle="90.00" type="human" speed="13.43" pos="79.67" lane="e0_0" slope="0.00"/>
        <vehicle id="background.2" x="5.10" y="-1.60" angle="90.00" type="human" speed="13.22" pos="5.10" lane="e0_0" slope="0.00"/>
    </timestep>
    <timestep time="53.50">
        <vehicle id="background.1" x="86.61" y="-1.60" angle="90.00" type="human" speed="13.87" pos="86.61" lane="e0_0" slope="0.00"/>
        <vehicle id="background.2" x="11.46" y="-1.60" angle="90.00" type="human" speed="12.73" pos="11.46" lane="e0_0" slope="0.00"/>
    </timestep>
    <timestep time="54.00">
        <vehicle id="background.1" x="93.35" y="-1.60" angle="90.00" type="human" speed="13.48" pos="93.35" lane="e0_0" slope="0.00"/>
        <vehicle id="background.2" x="17.89" y="-1.60" angle="90.00" type="human" speed="12.86" pos="17.89" lane="e0_0" slope="0.00"/>
    </timestep>
    <timestep time="54.50">
        <vehicle id="background.1" x="100.29" y="-1.60" angle="90.00" type="human" speed="13.89" pos="100.29" lane="e0_0" slope="0.00"/>
        <vehicle id="background.2" x="24.42" y="-1.60" angle="90.00" type="human" speed="13.06" pos="24.42" lane="e0_0" slope="0.00"/>
    </timestep>
    <timestep time="55.00">
        <vehicle id="background.1" x="107.00" y="-1.60" angle="90.00" type="human" speed="13.41" pos="107.00" lane="e0_0" slope="0.00"/>
        <vehicle id="background.2" x="30.97" y="-1.60" angle="90.00" type="human" speed="13.09" pos="30.97" lane="e0_0" slope="0.00"/>
    </timestep>
    <timestep time="55.50">
        <vehicle id="background.1" x="113.84" y="-1.60" angle="90.00" type="human" speed="13.68" pos="113.84" lane="e0_0" slope="0.00"/>
        <vehicle id="background.2" x="37.55" y="-1.60" angle="90.00" type="human" speed="13.17" pos="37.55" lane="e0_0" slope="0.00"/>
    </timestep>
    <timestep time="56.00">
        <vehicle id="background.1" x="120.66" y="-1.60" angle="90.00" type="human" speed="13.63" pos="120.66" lane="e0_0" slope="0.00"/>
        <vehicle id="background.2" x="44.12" y="-1.60" angle="90.00" type="human" speed="13.13" pos="44.12" lane="e0_0" slope="0.00"/>
    </timestep>
    <timestep time="56.50">
        <vehicle id="background.1" x="127.41" y="-1.60" angle="90.00" type="human" speed="13.51" pos="127.41" lane="e0_0" slope="0.00"/>
        <vehicle id="background.2" x="50.68" y="-1.60" angle="90.00" type="human" speed="13.12" pos="50.68" lane="e0_0" slope="0.00"/>
    </timestep>
    <timestep time="57.00">
        <vehicle id="background.1" x="134.36" y="-1.60" angle="90.00" type="human" speed="13.88" pos="134.36" lane="e0_0" slope="0.00"/>
        <vehicle id="background.2" x="57.15" y="-1.60" angle="90.00" type="human" speed="12.93" pos="57.15" lane="e0_0" slope="0.00"/>
    </timestep>
    <timestep time="57.50">
        <vehicle id="background.1" x="141.06" y="-1.60" angle="90.00" type="human" speed="13.41" pos="141.06" lane="e0_0" slope="0.00"/>
        <vehicle id="background.2" x="63.70" y="-1.60" angle="90.00" type="human" speed="13.09" pos="63.70" lane="e0_0" slope="0.00"/>
    </timestep>
    <timestep time="58.00">
        <vehicle id="background.1" x="147.99" y="-1.60" angle="90.00" type="human" speed="13.85" pos="147.99" lane="e0_0" slope="0.00"/>
        <vehicle id="background.2" x="70.22" y="-1.60" angle="90.00" type="human" speed="13.06" pos="70.22" lane="e0_0" slope="0.00"/>
    </timestep>
    <timestep time="58.50">
        <vehicle id="background.1" x="154.88" y="-1.60" angle="90.00" type="human" speed="13.78" pos="154.88" lane="e0_0" slope="0.00"/>
        <vehicle id="background.2" x="76.82" y="-1.60" angle="90.00" type="human" speed="13.18" pos="76.82" lane="e0_0" slope="0.00"/>
    </timestep>
    <timestep time="59.00">
        <vehicle id="background.1" x="161.79" y="-1.60" angle="90.00" type="human" speed="13.84" pos="161.79" lane="e0_0" slope="0.00"/>
        <vehicle id="background.2" x="83.25" y="-1.60" angle="90.00" type="human" speed="12.87" pos="83.25" lane="e0_0" slope="0.00"/>
    </timestep>
    <timestep time="59.50">
        <vehicle id="background.1" x="168.62" y="-1.60" angle="90.00" type="human" speed="13.66" pos="168.62" lane="e0_0" slope="0.00"/>
        <vehicle id="background.2" x="89.79" y="-1.60" angle="90.00" type="human" speed="13.08" pos="89.79" lane="e0_0" slope="0.00"/>
    </timestep>
    <timestep time="60.00">
        <vehicle id="background.1" x="175.35" y="-1.60" angle="90.00" type="human" speed="13.45" pos="175.35" lane="e0_0" slope="0.00"/>
        <vehicle id="background.2" x="96.27" y="-1.60" angle="90.00" type="human" speed="12.96" pos="96.27" lane="e0_0" slope="0.00"/>
    </timestep>
    <timestep time="60.50">
        <vehicle id="background.1" x="182.21" y="-1.60" angle="90.00" type="human" speed="13.73" pos="182.21" lane="e0_0" slope="0.00"/>
        <vehicle id="background.2" x="102.83" y="-1.60" angle="90.00" type="human" speed="13.12" pos="102.83" lane="e0_0" slope="0.00"/>
    </timestep>
    <timestep time="61.00">
        <vehicle id="background.1" x="189.15" y="-1.60" angle="90.00" type="human" speed="13.87" pos="189.15" lane="e0_0" slope="0.00"/>
        <vehicle id="background.2" x="109.35" y="-1.60" angle="90.00" type="human" speed="13.04" pos="109.35" lane="e0_0" slope="0.00"/>
    </timestep>
    <timestep time="61.50">
        <vehicle id="background.1" x="196.04" y="-1.60" angle="90.00" type="human" speed="13.79" pos="196.04" lane="e0_0" slope="0.00"/>
        <vehicle id="background.2" x="115.87" y="-1.60" angle="90.00" type="human" speed="13.05" pos="115.87" lane="e0_0" slope="0.00"/>
    </timestep>
    <timestep time="62.00">
        <vehicle id="background.1" x="202.83" y="-1.60" angle="90.00" type="human" speed="13.58" pos="202.83" lane="e0_0" slope="0.00"/>
        <vehicle id="background.2" x="122.44" y="-1.60" angle="90.00" type="human" speed="13.14" pos="122.44" lane="e0_0" slope="0.00"/>
    </timestep>
    <timestep time="62.50">
        <vehicle id="background.1" x="209.76" y="-1.60" angle="90.00" type="human" speed="13.86" pos="209.76" lane="e0_0" slope="0.00"/>
        <vehicle id="background.2" x="128.85" y="-1.60" angle="90.00" type="human" speed="12.81" pos="128.85" lane="e0_0" slope="0.00"/>
    </timestep>
    <timestep time="63.00">
        <vehicle id="background.1" x="216.54" y="-1.60" angle="90.00" type="human" speed="13.56" pos="216.54" lane="e0_0" slope="0.00"/>
        <vehicle id="background.2" x="135.39" y="-1.60" angle="90.00" type="human" speed="13.08" pos="135.39" lane="e0_0" slope="0.00"/>
    </timestep>
    <timestep time="63.50">
        <vehicle id="background.1" x="223.27" y="-1.60" angle="90.00" type="human" speed="13.45" pos="223.27" lane="e0_0" slope="0.00"/>
        <vehicle id="background.2" x="141.89" y="-1.60" angle="90.00" type="human" speed="13.00" pos="141.89" lane="e0_0" slope="0.00"/>
    </timestep>
    <timestep time="64.00">
        <vehicle id="background.1" x="230.17" y="-1.60" angle="90.00" type="human" speed="13.81" pos="230.17" lane="e0_0" slope="0.00"/>
        <vehicle id="background.2" x="148.25" y="-1.60" angle="90.00" type="human" speed="12.73" pos="148.25" lane="e0_0" slope="0.00"/>
    </timestep>
    <timestep time="64.50">
        <vehicle id="background.1" x="236.98" y="-1.60" angle="90.00" type="human" speed="13.61" pos="236.98" lane="e0_0" slope="0.00"/>
        <vehicle id="background.2" x="154.62" y="-1.60" angle="90.00" type="human" speed="12.73" pos="154.62" lane="e0_0" slope="0.00"/>
    </timestep>
    <timestep time="65.00">
        <vehicle id="background.1" x="243.69" y="-1.60" angle="90.00" type="human" speed="13.43" pos="243.69" lane="e0_0" slope="0.00"/>
        <vehicle id="background.2" x="161.15" y="-1.60" angle="90.00" type="human" speed="13.05" pos="161.15" lane="e0_0" slope="0.00"/>
    </timestep>
    <timestep time="65.50">
        <vehicle id="background.1" x="250.54" y="-1.60" angle="90.00" type="human" speed="13.70" pos="250.54" lane="e0_0" slope="0.00"/>
        <vehicle id="background.2" x="167.58" y="-1.60" angle="90.00" type="human" speed="12.87" pos="167.58" lane="e0_0" slope="0.00"/>
    </timestep>
    <timestep time="66.00">
        <vehicle id="background.1" x="257.48" y="-1.60" angle="90.00" type="human" speed="13.88" pos="257.48" lane="e0_0" slope="0.00"/>
        <vehicle id="background.2" x="174.01" y="-1.60" angle="90.00" type="human" speed="12.85" pos="174.01" lane="e0_0" slope="0.00"/>
        <vehicle id="background.3" x="5.10" y="-1.60" angle="90.00" type="human" speed="13.89" pos="5.10" lane="e0_0" slope="0.00"/>
    </timestep>
    <timestep time="66.50">
        <vehicle id="background.1" x="264.24" y="-1.60" angle="90.00" type="human" speed="13.52" pos="264.24" lane="e0_0" slope="0.00"/>
        <vehicle id="background.2" x="180.62" y="-1.60" angle="90.00" type="human" speed="13.21" pos="180.62" lane="e0_0" slope="0.00"/>
        <vehicle id="background.3" x="11.98" y="-1.60" angle="90.00" type="human" speed="13.75" pos="11.98" lane="e0_0" slope="0.00"/>
    </timestep>
    <timestep time="67.00">
        <vehicle id="background.1" x="271.11" y="-1.60" angle="90.00" type="human" speed="13.74" pos="271.11" lane="e0_0" slope="0.00"/>
        <vehicle id="background.2" x="187.16" y="-1.60" angle="90.00" type="human" speed="13.09" pos="187.16" lane="e0_0" slope="0.00"/>
        <vehicle id="background.3" x="18.71" y="-1.60" angle="90.00" type="human" speed="13.46" pos="18.71" lane="e0_0" slope="0.00"/>
        <vehicle id="ego" x="5.10" y="-1.60" angle="90.00" type="ego_glosa_type" speed="0.00" pos="5.10" lane="e0_0" slope="0.00"/>
    </timestep>
    <timestep time="67.50">
        <vehicle id="background.1" x="277.96" y="-1.60" angle="90.00" type="human" speed="13.69" pos="277.96" lane="e0_0" slope="0.00"/>
        <vehicle id="background.2" x="193.59" y="-1.60" angle="90.00" type="human" speed="12.85" pos="193.59" lane="e0_0" slope="0.00"/>
        <vehicle id="background.3" x="25.64" y="-1.60" angle="90.00" type="human" speed="13.86" pos="25.64" lane="e0_0" slope="0.00"/>
        <vehicle id="ego" x="5.60" y="-1.60" angle="90.00" type="ego_glosa_type" speed="1.00" pos="5.60" lane="e0_0" slope="0.00"/>
    </timestep>
    <timestep time="68.00">
        <vehicle id="background.1" x="284.13" y="-1.60" angle="90.00" type="human" speed="12.35" pos="284.13" lane="e0_0" slope="0.00"/>
        <vehicle id="background.2" x="200.01" y="-1.60" angle="90.00" type="human" speed="12.86" pos="200.01" lane="e0_0" slope="0.00"/>
        <vehicle id="background.3" x="32.56" y="-1.60" angle="90.00" type="human" speed="13.84" pos="32.56" lane="e0_0" slope="0.00"/>
        <vehicle id="ego" x="6.60" y="-1.60" angle="90.00" type="ego_glosa_type" speed="2.00" pos="6.60" lane="e0_0" slope="0.00"/>
    </timestep>
    <timestep time="68.50">
        <vehicle id="background.1" x="289.18" y="-1.60" angle="90.00" type="human" speed="10.10" pos="289.18" lane="e0_0" slope="0.00"/>
        <vehicle id="background.2" x="206.58" y="-1.60" angle="90.00" type="human" speed="13.14" pos="206.58" lane="e0_0" slope="0.00"/>
        <vehicle id="background.3" x="39.28" y="-1.60" angle="90.00" type="human" speed="13.45" pos="39.28" lane="e0_0" slope="0.00"/>
        <vehicle id="ego" x="8.10" y="-1.60" angle="90.00" type="ego_glosa_type" speed="3.00" pos="8.10" lane="e0_0" slope="0.00"/>
    </timestep>
    <timestep time="69.00">
        <vehicle id="background.1" x="293.26" y="-1.60" angle="90.00" type="human" speed="8.16" pos="293.26" lane="e0_0" slope="0.00"/>
        <vehicle id="background.2" x="213.08" y="-1.60" angle="90.00" type="human" speed="13.01" pos="213.08" lane="e0_0" slope="0.00"/>
        <vehicle id="background.3" x="46.12" y="-1.60" angle="90.00" type="human" speed="13.67" pos="46.12" lane="e0_0" slope="0.00"/>
        <vehicle id="ego" x="10.10" y="-1.60" angle="90.00" type="ego_glosa_type" speed="4.00" pos="10.10" lane="e0_0" slope="0.00"/>
    </timestep>
    <timestep time="69.50">
        <vehicle id="background.1" x="296.24" y="-1.60" angle="90.00" type="human" speed="5.95" pos="296.24" lane="e0_0" slope="0.00"/>
        <vehicle id="background.2" x="219.63" y="-1.60" angle="90.00" type="human" speed="13.10" pos="219.63" lane="e0_0" slope="0.00"/>
        <vehicle id="background.3" x="52.87" y="-1.60" angle="90.00" type="human" speed="13.49" pos="52.87" lane="e0_0" slope="0.00"/>
        <vehicle id="background.4" x="5.10" y="-1.60" angle="90.00" type="human" speed="1.62" pos="5.10" lane="e0_0" slope="0.00"/>
        <vehicle id="ego" x="12.60" y="-1.60" angle="90.00" type="ego_glosa_type" speed="5.00" pos="12.60" lane="e0_0" slope="0.00"/>
    </timestep>
    <timestep time="70.00">
        <vehicle id="background.1" x="298.08" y="-1.60" angle="90.00" type="human" speed="3.70" pos="298.08" lane="e0_0" slope="0.00"/>
        <vehicle id="background.2" x="226.21" y="-1.60" angle="90.00" type="human" speed="13.15" pos="226.21" lane="e0_0" slope="0.00"/>
        <vehicle id="background.3" x="59.78" y="-1.60" angle="90.00" type="human" speed="13.82" pos="59.78" lane="e0_0" slope="0.00"/>
        <vehicle id="background.4" x="5.84" y="-1.60" angle="90.00" type="human" speed="1.49" pos="5.84" lane="e0_0" slope="0.00"/>
        <vehicle id="ego" x="15.60" y="-1.60" angle="90.00" type="ego_glosa_type" speed="6.00" pos="15.60" lane="e0_0" slope="0.00"/>
    </timestep>
    <timestep time="70.50">
        <vehicle id="background.1" x="298.93" y="-1.60" angle="90.00" type="human" speed="1.70" pos="298.93" lane="e0_0" slope="0.00"/>
        <vehicle id="background.2" x="232.82" y="-1.60" angle="90.00" type="human" speed="13.21" pos="232.82" lane="e0_0" slope="0.00"/>
        <vehicle id="background.3" x="66.60" y="-1.60" angle="90.00" type="human" speed="13.65" pos="66.60" lane="e0_0" slope="0.00"/>
        <vehicle id="background.4" x="6.90" y="-1.60" angle="90.00" type="human" speed="2.12" pos="6.90" lane="e0_0" slope="0.00"/>
        <vehicle id="ego" x="19.10" y="-1.60" angle="90.00" type="ego_glosa_type" speed="7.00" pos="19.10" lane="e0_0" slope="0.00"/>
    </timestep>
    <timestep time="71.00">
        <vehicle id="background.1" x="298.98" y="-1.60" angle="90.00" type="human" speed="0.10" pos="298.98" lane="e0_0" slope="0.00"/>
        <vehicle id="background.2" x="239.19" y="-1.60" angle="90.00" type="human" speed="12.75" pos="239.19" lane="e0_0" slope="0.00"/>
        <vehicle id="background.3" x="73.38" y="-1.60" angle="90.00" type="human" speed="13.56" pos="73.38" lane="e0_0" slope="0.00"/>
        <vehicle id="background.4" x="8.40" y="-1.60" angle="90.00" type="human" speed="2.99" pos="8.40" lane="e0_0" slope="0.00"/>
        <vehicle id="ego" x="23.10" y="-1.60" angle="90.00" type="ego_glosa_type" speed="8.00" pos="23.10" lane="e0_0" slope="0.00"/>
    </timestep>
    <timestep time="71.50">
        <vehicle id="background.1" x="299.00" y="-1.60" angle="90.00" type="human" speed="0.02" pos="299.00" lane="e0_0" slope="0.00"/>
        <vehicle id="background.2" x="245.71" y="-1.60" angle="90.00" type="human" speed="13.04" pos="245.71" lane="e0_0" slope="0.00"/>
        <vehicle id="background.3" x="80.16" y="-1.60" angle="90.00" type="human" speed="13.56" pos="80.16" lane="e0_0" slope="0.00"/>
        <vehicle id="background.4" x="10.26" y="-1.60" angle="90.00" type="human" speed="3.72" pos="10.26" lane="e0_0" slope="0.00"/>
        <vehicle id="ego" x="27.60" y="-1.60" angle="90.00" type="ego_glosa_type" speed="9.00" pos="27.60" lane="e0_0" slope="0.00"/>
    </timestep>
    <timestep time="72.00">
        <vehicle id="background.1" x="299.00" y="-1.60" angle="90.00" type="human" speed="0.01" pos="299.00" lane="e0_0" slope="0.00"/>
        <vehicle id="background.2" x="252.22" y="-1.60" angle="90.00" type="human" speed="13.02" pos="252.22" lane="e0_0" slope="0.00"/>
        <vehicle id="background.3" x="87.04" y="-1.60" angle="90.00" type="human" speed="13.75" pos="87.04" lane="e0_0" slope="0.00"/>
        <vehicle id="background.4" x="12.39" y="-1.60" angle="90.00" type="human" speed="4.26" pos="12.39" lane="e0_0" slope="0.00"/>
        <vehicle id="ego" x="32.60" y="-1.60" angle="90.00" type="ego_glosa_type" speed="10.00" pos="32.60" lane="e0_0" slope="0.00"/>
    </timestep>
    <timestep time="72.50">