<?xml version="1.0" encoding="UTF-8"?>

<!-- generated on 2026-05-14 17:05:46 by Eclipse SUMO sumo Version 1.24.0
<sumoConfiguration xmlns:xsi="http://www.w3.org/2001/XMLSchema-instance" xsi:noNamespaceSchemaLocation="http://sumo.dlr.de/xsd/sumoConfiguration.xsd">

    <input>
        <net-file value="scenarios/simple_arterial/simple_arterial.net.xml"/>
        <route-files value="scenarios/simple_arterial/simple_arterial_glosa.rou.xml"/>
        <additional-files value="scenarios/simple_arterial/simple_arterial.tls.xml"/>
    </input>

    <output>
        <fcd-output value="runs/fcd_expert_glosa/episode_00022_seed_64.fcd.xml"/>
    </output>

    <time>
        <begin value="0"/>
        <end value="900"/>
        <step-length value="0.5"/>
    </time>

    <report>
        <no-warnings value="true"/>
    </report>

    <traci_server>
        <remote-port value="37703"/>
    </traci_server>

    <random_number>
        <seed value="64"/>
    </random_number>

</sumoConfiguration>
-->

<fcd-export xmlns:xsi="http://www.w3.org/2001/XMLSchema-instance" xsi:noNamespaceSchemaLocation="http://sumo.dlr.de/xsd/fcd_file.xsd">
    <timestep time="0.00"/>
    <timestep time="0.50"/>
    <timestep time="1.00"/>
    <timestep time="1.50"/>
    <timestep time="2.00"/>
    <timestep time="2.50"/>
    <timestep time="3.00"/>
    <timestep time="3.50"/>
    <timestep time="4.00"/>
    <timestep time="4.50"/>
    <timestep time="5.00"/>
    <timestep time="5.50"/>
    <timestep time="6.00"/>
    <timestep time="6.50"/>
    <timestep time="7.00"/>
    <timestep time="7.50"/>
    <timestep time="8.00"/>
    <timestep time="8.50"/>
    <timestep time="9.00"/>
    <timestep time="9.50"/>
    <timestep time="10.00"/>
    <timestep time="10.50"/>
    <timestep time="11.00"/>
    <timestep time="11.50"/>
    <timestep time="12.00"/>
    <timestep time="12.50"/>
    <timestep time="13.00"/>
    <timestep time="13.50"/>
    <timestep time="14.00">
        <vehicle id="background.0" x="5.10" y="-1.60" angle="90.00" type="human" speed="13.08" pos="5.10" lane="e0_0" slope="0.00"/>
    </timestep>
    <timestep time="14.50">
        <vehicle id="background.0" x="11.58" y="-1.60" angle="90.00" type="human" speed="12.97" pos="11.58" lane="e0_0" slope="0.00"/>
    </timestep>
    <timestep time="15.00">
        <vehicle id="background.0" x="17.91" y="-1.60" angle="90.00" type="human" speed="12.64" pos="17.91" lane="e0_0" slope="0.00"/>
    </timestep>
    <timestep time="15.50">
        <vehicle id="background.0" x="24.44" y="-1.60" angle="90.00" type="human" speed="13.06" pos="24.44" lane="e0_0" slope="0.00"/>
    </timestep>
    <timestep time="16.00">
        <vehicle id="background.0" x="30.81" y="-1.60" angle="90.00" type="human" speed="12.75" pos="30.81" lane="e0_0" slope="0.00"/>
        <vehicle id="background.1" x="5.10" y="-1.60" angle="90.00" type="human" speed="13.89" pos="5.10" lane="e0_0" slope="0.00"/>
    </timestep>
    <timestep time="16.50">
        <vehicle id="background.0" x="37.28" y="-1.60" angle="90.00" type="human" speed="12.93" pos="37.28" lane="e0_0" slope="0.00"/>
        <vehicle id="background.1" x="11.95" y="-1.60" angle="90.00" type="human" speed="13.70" pos="11.95" lane="e0_0" slope="0.00"/>
    </timestep>
    <timestep time="17.00">
        <vehicle id="background.0" x="43.77" y="-1.60" angle="90.00" type="human" speed="12.99" pos="43.77" lane="e0_0" slope="0.00"/>
        <vehicle id="background.1" x="18.79" y="-1.60" angle="90.00" type="human" speed="13.68" pos="18.79" lane="e0_0" slope="0.00"/>
    </timestep>
    <timestep time="17.50">
        <vehicle id="background.0" x="50.23" y="-1.60" angle="90.00" type="human" speed="12.93" pos="50.23" lane="e0_0" slope="0.00"/>
        <vehicle id="background.1" x="25.59" y="-1.60" angle="90.00" type="human" speed="13.60" pos="25.59" lane="e0_0" slope="0.00"/>
    </timestep>
    <timestep time="18.00">
        <vehicle id="background.0" x="56.73" y="-1.60" angle="90.00" type="human" speed="13.00" pos="56.73" lane="e0_0" slope="0.00"/>
        <vehicle id="background.1" x="32.38" y="-1.60" angle="90.00" type="human" speed="13.57" pos="32.38" lane="e0_0" slope="0.00"/>
    </timestep>
    <timestep time="18.50">
        <vehicle id="background.0" x="63.10" y="-1.60" angle="90.00" type="human" speed="12.73" pos="63.10" lane="e0_0" slope="0.00"/>
        <vehicle id="background.1" x="39.29" y="-1.60" angle="90.00" type="human" speed="13.83" pos="39.29" lane="e0_0" slope="0.00"/>
    </timestep>
    <timestep time="19.00">
        <vehicle id="background.0" x="69.44" y="-1.60" angle="90.00" type="human" speed="12.69" pos="69.44" lane="e0_0" slope="0.00"/>
        <vehicle id="background.1" x="45.91" y="-1.60" angle="90.00" type="human" speed="13.24" pos="45.91" lane="e0_0" slope="0.00"/>
    </timestep>
    <timestep time="19.50">
        <vehicle id="background.0" x="75.85" y="-1.60" angle="90.00" type="human" speed="12.82" pos="75.85" lane="e0_0" slope="0.00"/>
        <vehicle id="background.1" x="52.61" y="-1.60" angle="90.00" type="human" speed="13.40" pos="52.61" lane="e0_0" slope="0.00"/>
    </timestep>
    <timestep time="20.00">
        <vehicle id="background.0" x="82.33" y="-1.60" angle="90.00" type="human" speed="12.96" pos="82.33" lane="e0_0" slope="0.00"/>
        <vehicle id="background.1" x="59.24" y="-1.60" angle="90.00" type="human" speed="13.25" pos="59.24" lane="e0_0" slope="0.00"/>
    </timestep>
    <timestep time="20.50">
        <vehicle id="background.0" x="88.81" y="-1.60" angle="90.00" type="human" speed="12.96" pos="88.81" lane="e0_0" slope="0.00"/>
        <vehicle id="background.1" x="66.07" y="-1.60" angle="90.00" type="human" speed="13.67" pos="66.07" lane="e0_0" slope="0.00"/>
    </timestep>
    <timestep time="21.00">
        <vehicle id="background.0" x="95.23" y="-1.60" angle="90.00" type="human" speed="12.82" pos="95.23" lane="e0_0" slope="0.00"/>
        <vehicle id="background.1" x="72.71" y="-1.60" angle="90.00" type="human" speed="13.28" pos="72.71" lane="e0_0" slope="0.00"/>
        <vehicle id="background.2" x="5.10" y="-1.60" angle="90.00" type="human" speed="13.89" pos="5.10" lane="e0_0" slope="0.00"/>
    </timestep>
    <timestep time="21.50">
        <vehicle id="background.0" x="101.73" y="-1.60" angle="90.00" type="human" speed="13.01" pos="101.73" lane="e0_0" slope="0.00"/>
        <vehicle id="background.1" x="79.22" y="-1.60" angle="90.00" type="human" speed="13.02" pos="79.22" lane="e0_0" slope="0.00"/>
        <vehicle id="background.2" x="11.90" y="-1.60" angle="90.00" type="human" speed="13.61" pos="11.90" lane="e0_0" slope="0.00"/>
    </timestep>
    <timestep time="22.00">
        <vehicle id="background.0" x="108.20" y="-1.60" angle="90.00" type="human" speed="12.93" pos="108.20" lane="e0_0" slope="0.00"/>
        <vehicle id="background.1" x="85.89" y="-1.60" angle="90.00" type="human" speed="13.33" pos="85.89" lane="e0_0" slope="0.00"/>
        <vehicle id="background.2" x="18.81" y="-1.60" angle="90.00" type="human" speed="13.81" pos="18.81" lane="e0_0" slope="0.00"/>
    </timestep>
    <timestep time="22.50">
        <vehicle id="background.0" x="114.56" y="-1.60" angle="90.00" type="human" speed="12.74" pos="114.56" lane="e0_0" slope="0.00"/>
        <vehicle id="background.1" x="92.57" y="-1.60" angle="90.00" type="human" speed="13.38" pos="92.57" lane="e0_0" slope="0.00"/>
        <vehicle id="background.2" x="25.57" y="-1.60" angle="90.00" type="human" speed="13.52" pos="25.57" lane="e0_0" slope="0.00"/>
    </timestep>
    <timestep time="23.00">
        <vehicle id="background.0" x="121.01" y="-1.60" angle="90.00" type="human" speed="12.89" pos="121.01" lane="e0_0" slope="0.00"/>
        <vehicle id="background.1" x="99.15" y="-1.60" angle="90.00" type="human" speed="13.16" pos="99.15" lane="e0_0" slope="0.00"/>
        <vehicle id="background.2" x="32.36" y="-1.60" angle="90.00" type="human" speed="13.59" pos="32.36" lane="e0_0" slope="0.00"/>
    </timestep>
    <timestep time="23.50">
        <vehicle id="background.0" x="127.52" y="-1.60" angle="90.00" type="human" speed="13.03" pos="127.52" lane="e0_0" slope="0.00"/>
        <vehicle id="background.1" x="105.65" y="-1.60" angle="90.00" type="human" speed="13.00" pos="105.65" lane="e0_0" slope="0.00"/>
        <vehicle id="background.2" x="39.08" y="-1.60" angle="90.00" type="human" speed="13.43" pos="39.08" lane="e0_0" slope="0.00"/>
    </timestep>
    <timestep time="24.00">
        <vehicle id="background.0" x="133.90" y="-1.60" angle="90.00" type="human" speed="12.75" pos="133.90" lane="e0_0" slope="0.00"/>
        <vehicle id="background.1" x="112.30" y="-1.60" angle="90.00" type="human" speed="13.30" pos="112.30" lane="e0_0" slope="0.00"/>
        <vehicle id="background.2" x="45.92" y="-1.60" angle="90.00" type="human" speed="13.67" pos="45.92" lane="e0_0" slope="0.00"/>
    </timestep>
    <timestep time="24.50">
        <vehicle id="background.0" x="140.41" y="-1.60" angle="90.00" type="human" speed="13.03" pos="140.41" lane="e0_0" slope="0.00"/>
        <vehicle id="background.1" x="118.70" y="-1.60" angle="90.00" type="human" speed="12.79" pos="118.70" lane="e0_0" slope="0.00"/>
        <vehicle id="background.2" x="52.66" y="-1.60" angle="90.00" type="human" speed="13.49" pos="52.66" lane="e0_0" slope="0.00"/>
    </timestep>
    <timestep time="25.00">
        <vehicle id="background.0" x="146.77" y="-1.60" angle="90.00" type="human" speed="12.72" pos="146.77" lane="e0_0" slope="0.00"/>
        <vehicle id="background.1" x="125.35" y="-1.60" angle="90.00" type="human" speed="13.31" pos="125.35" lane="e0_0" slope="0.00"/>
        <vehicle id="background.2" x="59.38" y="-1.60" angle="90.00" type="human" speed="13.43" pos="59.38" lane="e0_0" slope="0.00"/>
    </timestep>
    <timestep time="25.50">
        <vehicle id="background.0" x="153.20" y="-1.60" angle="90.00" type="human" speed="12.85" pos="153.20" lane="e0_0" slope="0.00"/>
        <vehicle id="background.1" x="131.66" y="-1.60" angle="90.00" type="human" speed="12.61" pos="131.66" lane="e0_0" slope="0.00"/>
        <vehicle id="background.2" x="66.30" y="-1.60" angle="90.00" type="human" speed="13.84" pos="66.30" lane="e0_0" slope="0.00"/>
    </timestep>
    <timestep time="26.00">
        <vehicle id="background.0" x="159.60" y="-1.60" angle="90.00" type="human" speed="12.81" pos="159.60" lane="e0_0" slope="0.00"/>
        <vehicle id="background.1" x="138.12" y="-1.60" angle="90.00" type="human" speed="12.92" pos="138.12" lane="e0_0" slope="0.00"/>
        <vehicle id="background.2" x="73.12" y="-1.60" angle="90.00" type="human" speed="13.65" pos="73.12" lane="e0_0" slope="0.00"/>
    </timestep>
    <timestep time="26.50">
        <vehicle id="background.0" x="166.03" y="-1.60" angle="90.00" type="human" speed="12.85" pos="166.03" lane="e0_0" slope="0.00"/>
        <vehicle id="background.1" x="144.53" y="-1.60" angle="90.00" type="human" speed="12.81" pos="144.53" lane="e0_0" slope="0.00"/>
        <vehicle id="background.2" x="80.02" y="-1.60" angle="90.00" type="human" speed="13.80" pos="80.02" lane="e0_0" slope="0.00"/>
    </timestep>
    <timestep time="27.00">
        <vehicle id="background.0" x="172.51" y="-1.60" angle="90.00" type="human" speed="12.96" pos="172.51" lane="e0_0" slope="0.00"/>
        <vehicle id="background.1" x="150.87" y="-1.60" angle="90.00" type="human" speed="12.69" pos="150.87" lane="e0_0" slope="0.00"/>
        <vehicle id="background.2" x="86.83" y="-1.60" angle="90.00" type="human" speed="13.62" pos="86.83" lane="e0_0" slope="0.00"/>
    </timestep>
    <timestep time="27.50">
        <vehicle id="background.0" x="178.88" y="-1.60" angle="90.00" type="human" speed="12.75" pos="178.88" lane="e0_0" slope="0.00"/>
        <vehicle id="background.1" x="157.52" y="-1.60" angle="90.00" type="human" speed="13.29" pos="157.52" lane="e0_0" slope="0.00"/>
        <vehicle id="background.2" x="93.62" y="-1.60" angle="90.00" type="human" speed="13.57" pos="93.62" lane="e0_0" slope="0.00"/>
    </timestep>
    <timestep time="28.00">
        <vehicle id="background.0" x="185.38" y="-1.60" angle="90.00" type="human" speed="12.99" pos="185.38" lane="e0_0" slope="0.00"/>
        <vehicle id="background.1" x="163.91" y="-1.60" angle="90.00" type="human" speed="12.79" pos="163.91" lane="e0_0" slope="0.00"/>
        <vehicle id="background.2" x="100.35" y="-1.60" angle="90.00" type="human" speed="13.46" pos="100.35" lane="e0_0" slope="0.00"/>
    </timestep>
    <timestep time="28.50">
        <vehicle id="background.0" x="191.91" y="-1.60" angle="90.00" type="human" speed="13.06" pos="191.91" lane="e0_0" slope="0.00"/>
        <vehicle id="background.1" x="170.50" y="-1.60" angle="90.00" type="human" speed="13.18" pos="170.50" lane="e0_0" slope="0.00"/>
        <vehicle id="background.2" x="107.26" y="-1.60" angle="90.00" type="human" speed="13.84" pos="107.26" lane="e0_0" slope="0.00"/>
        <vehicle id="background.3" x="5.10" y="-1.60" angle="90.00" type="human" speed="13.12" pos="5.10" lane="e0_0" slope="0.00"/>
    </timestep>
    <timestep time="29.00">
        <vehicle id="background.0" x="198.21" y="-1.60" angle="90.00" type="human" speed="12.60" pos="198.21" lane="e0_0" slope="0.00"/>
        <vehicle id="background.1" x="177.07" y="-1.60" angle="90.00" type="human" speed="13.13" pos="177.07" lane="e0_0" slope="0.00"/>
        <vehicle id="background.2" x="114.07" y="-1.60" angle="90.00" type="human" speed="13.60" pos="114.07" lane="e0_0" slope="0.00"/>
        <vehicle id="background.3" x="11.65" y="-1.60" angle="90.00" type="human" speed="13.10" pos="11.65" lane="e0_0" slope="0.00"/>
    </timestep>
    <timestep time="29.50">
        <vehicle id="background.0" x="204.57" y="-1.60" angle="90.00" type="human" speed="12.72" pos="204.57" lane="e0_0" slope="0.00"/>
        <vehicle id="background.1" x="183.38" y="-1.60" angle="90.00" type="human" speed="12.62" pos="183.38" lane="e0_0" slope="0.00"/>
        <vehicle id="background.2" x="120.85" y="-1.60" angle="90.00" type="human" speed="13.57" pos="120.85" lane="e0_0" slope="0.00"/>
        <vehicle id="background.3" x="18.01" y="-1.60" angle="90.00" type="human" speed="12.72" pos="18.01" lane="e0_0" slope="0.00"/>
    </timestep>
    <timestep time="30.00">
        <vehicle id="background.0" x="210.88" y="-1.60" angle="90.00" type="human" speed="12.61" pos="210.88" lane="e0_0" slope="0.00"/>
        <vehicle id="background.1" x="189.78" y="-1.60" angle="90.00" type="human" speed="12.81" pos="189.78" lane="e0_0" slope="0.00"/>
        <vehicle id="background.2" x="127.78" y="-1.60" angle="90.00" type="human" speed="13.85" pos="127.78" lane="e0_0" slope="0.00"/>
        <vehicle id="background.3" x="24.33" y="-1.60" angle="90.00" type="human" speed="12.65" pos="24.33" lane="e0_0" slope="0.00"/>
    </timestep>
    <timestep time="30.50">
        <vehicle id="background.0" x="217.32" y="-1.60" angle="90.00" type="human" speed="12.89" pos="217.32" lane="e0_0" slope="0.00"/>
        <vehicle id="background.1" x="196.15" y="-1.60" angle="90.00" type="human" speed="12.74" pos="196.15" lane="e0_0" slope="0.00"/>
        <vehicle id="background.2" x="134.64" y="-1.60" angle="90.00" type="human" speed="13.72" pos="134.64" lane="e0_0" slope="0.00"/>
        <vehicle id="background.3" x="30.79" y="-1.60" angle="90.00" type="human" speed="12.92" pos="30.79" lane="e0_0" slope="0.00"/>
    </timestep>
    <timestep time="31.00">
        <vehicle id="background.0" x="223.64" y="-1.60" angle="90.00" type="human" speed="12.64" pos="223.64" lane="e0_0" slope="0.00"/>
        <vehicle id="background.1" x="202.66" y="-1.60" angle="90.00" type="human" speed="13.01" pos="202.66" lane="e0_0" slope="0.00"/>
        <vehicle id="background.2" x="141.51" y="-1.60" angle="90.00" type="human" speed="13.75" pos="141.51" lane="e0_0" slope="0.00"/>
        <vehicle id="background.3" x="37.25" y="-1.60" angle="90.00" type="human" speed="12.92" pos="37.25" lane="e0_0" slope="0.00"/>
    </timestep>
    <timestep time="31.50">
        <vehicle id="background.0" x="230.01" y="-1.60" angle="90.00" type="human" speed="12.74" pos="230.01" lane="e0_0" slope="0.00"/>
        <vehicle id="background.1" x="209.07" y="-1.60" angle="90.00" type="human" speed="12.83" pos="209.07" lane="e0_0" slope="0.00"/>
        <vehicle id="background.2" x="148.44" y="-1.60" angle="90.00" type="human" speed="13.86" pos="148.44" lane="e0_0" slope="0.00"/>
        <vehicle id="background.3" x="43.59" y="-1.60" angle="90.00" type="human" speed="12.69" pos="43.59" lane="e0_0" slope="0.00"/>
    </timestep>
    <timestep time="32.00">
        <vehicle id="background.0" x="236.36" y="-1.60" angle="90.00" type="human" speed="12.69" pos="236.36" lane="e0_0" slope="0.00"/>
        <vehicle id="background.1" x="215.46" y="-1.60" angle="90.00" type="human" speed="12.78" pos="215.46" lane="e0_0" slope="0.00"/>
        <vehicle id="background.2" x="155.33" y="-1.60" angle="90.00" type="human" speed="13.78" pos="155.33" lane="e0_0" slope="0.00"/>
        <vehicle id="background.3" x="49.92" y="-1.60" angle="90.00" type="human" speed="12.65" pos="49.92" lane="e0_0" slope="0.00"/>
    </timestep>
    <timestep time="32.50">
        <vehicle id="background.0" x="242.79" y="-1.60" angle="90.00" type="human" speed="12.85" pos="242.79" lane="e0_0" slope="0.00"/>
        <vehicle id="background.1" x="221.75" y="-1.60" angle="90.00" type="human" speed="12.57" pos="221.75" lane="e0_0" slope="0.00"/>
        <vehicle id="background.2" x="162.22" y="-1.60" angle="90.00" type="human" speed="13.78" pos="162.22" lane="e0_0" slope="0.00"/>
        <vehicle id="background.3" x="56.46" y="-1.60" angle="90.00" type="human" speed="13.09" pos="56.46" lane="e0_0" slope="0.00"/>
    </timestep>
    <timestep time="33.00">
        <vehicle id="background.0" x="249.26" y="-1.60" angle="90.00" type="human" speed="12.94" pos="249.26" lane="e0_0" slope="0.00"/>
        <vehicle id="background.1" x="228.16" y="-1.60" angle="90.00" type="human" speed="12.82" pos="228.16" lane="e0_0" slope="0.00"/>
        <vehicle id="background.2" x="169.15" y="-1.60" angle="90.00" type="human" speed="13.85" pos="169.15" lane="e0_0" slope="0.00"/>
        <vehicle id="background.3" x="62.85" y="-1.60" angle="90.00" type="human" speed="12.77" pos="62.85" lane="e0_0" slope="0.00"/>
    </timestep>
    <timestep time="33.50">
        <vehicle id="background.0" x="255.56" y="-1.60" angle="90.00" type="human" speed="12.60" pos="255.56" lane="e0_0" slope="0.00"/>
        <vehicle id="background.1" x="234.55" y="-1.60" angle="90.00" type="human" speed="12.79" pos="234.55" lane="e0_0" slope="0.00"/>
        <vehicle id="background.2" x="176.07" y="-1.60" angle="90.00" type="human" speed="13.84" pos="176.07" lane="e0_0" slope="0.00"/>
        <vehicle id="background.3" x="69.40" y="-1.60" angle="90.00" type="human" speed="13.10" pos="69.40" lane="e0_0" slope="0.00"/>
    </timestep>
    <timestep time="34.00">
        <vehicle id="background.0" x="261.90" y="-1.60" angle="90.00" type="human" speed="12.69" pos="261.90" lane="e0_0" slope="0.00"/>
        <vehicle id="background.1" x="240.80" y="-1.60" angle="90.00" type="human" speed="12.50" pos="240.80" lane="e0_0" slope="0.00"/>
        <vehicle id="background.2" x="182.77" y="-1.60" angle="90.00" type="human" speed="13.40" pos="182.77" lane="e0_0" slope="0.00"/>
        <vehicle id="background.3" x="75.73" y="-1.60" angle="90.00" type="human" speed="12.68" pos="75.73" lane="e0_0" slope="0.00"/>
    </timestep>
    <timestep time="34.50">
        <vehicle id="background.0" x="268.23" y="-1.60" angle="90.00" type="human" speed="12.66" pos="268.23" lane="e0_0" slope="0.00"/>
        <vehicle id="background.1" x="247.27" y="-1.60" angle="90.00" type="human" speed="12.93" pos="247.27" lane="e0_0" slope="0.00"/>
        <vehicle id="background.2" x="189.47" y="-1.60" angle="90.00" type="human" speed="13.39" pos="189.47" lane="e0_0" slope="0.00"/>
        <vehicle id="background.3" x="82.09" y="-1.60" angle="90.00" type="human" speed="12.71" pos="82.09" lane="e0_0" slope="0.00"/>
    </timestep>
    <timestep time="35.00">
        <vehicle id="background.0" x="274.75" y="-1.60" angle="90.00" type="human" speed="13.04" pos="274.75" lane="e0_0" slope="0.00"/>
        <vehicle id="background.1" x="253.69" y="-1.60" angle="90.00" type="human" speed="12.84" pos="253.69" lane="e0_0" slope="0.00"/>
        <vehicle id="background.2" x="196.39" y="-1.60" angle="90.00" type="human" speed="13.84" pos="196.39" lane="e0_0" slope="0.00"/>
        <vehicle id="background.3" x="88.41" y="-1.60" angle="90.00" type="human" speed="12.64" pos="88.41" lane="e0_0" slope="0.00"/>
        <vehicle id="background.4" x="5.10" y="-1.60" angle="90.00" type="human" speed="12.74" pos="5.10" lane="e0_0" slope="0.00"/>
    </timestep>
    <timestep time="35.50">
        <vehicle id="background.0" x="281.14" y="-1.60" angle="90.00" type="human" speed="12.78" pos="281.14" lane="e0_0" slope="0.00"/>
        <vehicle id="background.1" x="260.13" y="-1.60" angle="90.00" type="human" speed="12.89" pos="260.13" lane="e0_0" slope="0.00"/>
        <vehicle id="background.2" x="203.14" y="-1.60" angle="90.00" type="human" speed="13.50" pos="203.14" lane="e0_0" slope="0.00"/>
        <vehicle id="background.3" x="94.84" y="-1.60" angle="90.00" type="human" speed="12.86" pos="94.84" lane="e0_0" slope="0.00"/>
        <vehicle id="background.4" x="11.41" y="-1.60" angle="90.00" type="human" speed="12.63" pos="11.41" lane="e0_0" slope="0.00"/>
    </timestep>
    <timestep time="36.00">
        <vehicle id="background.0" x="287.59" y="-1.60" angle="90.00" type="human" speed="12.90" pos="287.59" lane="e0_0" slope="0.00"/>
        <vehicle id="background.1" x="266.59" y="-1.60" angle="90.00" type="human" speed="12.90" pos="266.59" lane="e0_0" slope="0.00"/>
        <vehicle id="background.2" x="210.01" y="-1.60" angle="90.00" type="human" speed="13.75" pos="210.01" lane="e0_0" slope="0.00"/>
        <vehicle id="background.3" x="101.28" y="-1.60" angle="90.00" type="human" speed="12.88" pos="101.28" lane="e0_0" slope="0.00"/>
        <vehicle id="background.4" x="17.72" y="-1.60" angle="90.00" type="human" speed="12.60" pos="17.72" lane="e0_0" slope="0.00"/>
    </timestep>
    <timestep time="36.50">
        <vehicle id="background.0" x="294.10" y="-1.60" angle="90.00" type="human" speed="13.01" pos="294.10" lane="e0_0" slope="0.00"/>
        <vehicle id="background.1" x="272.90" y="-1.60" angle="90.00" type="human" speed="12.63" pos="272.90" lane="e0_0" slope="0.00"/>
        <vehicle id="background.2" x="216.75" y="-1.60" angle="90.00" type="human" speed="13.48" pos="216.75" lane="e0_0" slope="0.00"/>
        <vehicle id="background.3" x="107.67" y="-1.60" angle="90.00" type="human" speed="12.78" pos="107.67" lane="e0_0" slope="0.00"/>
        <vehicle id="background.4" x="24.03" y="-1.60" angle="90.00" type="human" speed="12.64" pos="24.03" lane="e0_0" slope="0.00"/>
    </timestep>
    <timestep time="37.00">
        <vehicle id="background.0" x="300.46" y="-1.60" angle="90.00" type="human" speed="12.92" pos="0.46" lane="e1_0" slope="0.00"/>
        <vehicle id="background.1" x="279.34" y="-1.60" angle="90.00" type="human" speed="12.88" pos="279.34" lane="e0_0" slope="0.00"/>
        <vehicle id="background.2" x="223.66" y="-1.60" angle="90.00" type="human" speed="13.82" pos="223.66" lane="e0_0" slope="0.00"/>
        <vehicle id="background.3" x="114.10" y="-1.60" angle="90.00" type="human" speed="12.86" pos="114.10" lane="e0_0" slope="0.00"/>
        <vehicle id="background.4" x="30.39" y="-1.60" angle="90.00" type="human" speed="12.72" pos="30.39" lane="e0_0" slope="0.00"/>
    </timestep>
    <timestep time="37.50">
        <vehicle id="background.0" x="306.96" y="-1.60" angle="90.00" type="human" speed="13.00" pos="6.96" lane="e1_0" slope="0.00"/>
        <vehicle id="background.1" x="285.86" y="-1.60" angle="90.00" type="human" speed="13.05" pos="285.86" lane="e0_0" slope="0.00"/>
        <vehicle id="background.2" x="230.44" y="-1.60" angle="90.00" type="human" speed="13.55" pos="230.44" lane="e0_0" slope="0.00"/>
        <vehicle id="background.3" x="120.56" y="-1.60" angle="90.00" type="human" speed="12.92" pos="120.56" lane="e0_0" slope="0.00"/>
        <vehicle id="background.4" x="36.73" y="-1.60" angle="90.00" type="human" speed="12.66" pos="36.73" lane="e0_0" slope="0.00"/>
    </timestep>
    <timestep time="38.00">
        <vehicle id="background.0" x="313.45" y="-1.60" angle="90.00" type="human" speed="12.98" pos="13.45" lane="e1_0" slope="0.00"/>
        <vehicle id="background.1" x="292.26" y="-1.60" angle="90.00" type="human" speed="12.80" pos="292.26" lane="e0_0" slope="0.00"/>
        <vehicle id="background.2" x="237.36" y="-1.60" angle="90.00" type="human" speed="13.84" pos="237.36" lane="e0_0" slope="0.00"/>
        <vehicle id="background.3" x="127.12" y="-1.60" angle="90.00" type="human" speed="13.11" pos="127.12" lane="e0_0" slope="0.00"/>
        <vehicle id="background.4" x="42.94" y="-1.60" angle="90.00" type="human" speed="12.43" pos="42.94" lane="e0_0" slope="0.00"/>
    </timestep>
    <timestep time="38.50">
        <vehicle id="background.0" x="319.95" y="-1.60" angle="90.00" type="human" speed="13.01" pos="19.95" lane="e1_0" slope="0.00"/>
        <vehicle id="background.1" x="298.72" y="-1.60" angle="90.00" type="human" speed="12.92" pos="298.72" lane="e0_0" slope="0.00"/>
        <vehicle id="background.2" x="244.27" y="-1.60" angle="90.00" type="human" speed="13.83" pos="244.27" lane="e0_0" slope="0.00"/>
        <vehicle id="background.3" x="133.53" y="-1.60" angle="90.00" type="human" speed="12.82" pos="133.53" lane="e0_0" slope="0.00"/>
        <vehicle id="background.4" x="49.08" y="-1.60" angle="90.00" type="human" speed="12.27" pos="49.08" lane="e0_0" slope="0.00"/>
    </timestep>
    <timestep time="39.00">
        <vehicle id="background.0" x="326.42" y="-1.60" angle="90.00" type="human" speed="12.94" pos="26.42" lane="e1_0" slope="0.00"/>
        <vehicle id="background.1" x="305.11" y="-1.60" angle="90.00" type="human" speed="12.98" pos="5.11" lane="e1_0" slope="0.00"/>
        <vehicle id="background.2" x="251.10" y="-1.60" angle="90.00" type="human" speed="13.66" pos="251.10" lane="e0_0" slope="0.00"/>
        <vehicle id="background.3" x="140.00" y="-1.60" angle="90.00" type="human" speed="12.95" pos="140.00" lane="e0_0" slope="0.00"/>
        <vehicle id="background.4" x="55.22" y="-1.60" angle="90.00" type="human" speed="12.28" pos="55.22" lane="e0_0" slope="0.00"/>
    </timestep>
    <timestep time="39.50">
        <vehicle id="background.0" x="332.87" y="-1.60" angle="90.00" type="human" speed="12.90" pos="32.87" lane="e1_0" slope="0.00"/>
        <vehicle id="background.1" x="311.64" y="-1.60" angle="90.00" type="human" speed="13.07" pos="11.64" lane="e1_0" slope="0.00"/>
        <vehicle id="background.2" x="257.85" y="-1.60" angle="90.00" type="human" speed="13.49" pos="257.85" lane="e0_0" slope="0.00"/>
        <vehicle id="background.3" x="146.43" y="-1.60" angle="90.00" type="human" speed="12.85" pos="146.43" lane="e0_0" slope="0.00"/>
        <vehicle id="background.4" x="61.38" y="-1.60" angle="90.00" type="human" speed="12.34" pos="61.38" lane="e0_0" slope="0.00"/>
    </timestep>
    <timestep time="40.00">
        <vehicle id="background.0" x="339.24" y="-1.60" angle="90.00" type="human" speed="12.74" pos="39.24" lane="e1_0" slope="0.00"/>
        <vehicle id="background.1" x="318.13" y="-1.60" angle="90.00" type="human" speed="12.97" pos="18.13" lane="e1_0" slope="0.00"/>
        <vehicle id="background.2" x="264.64" y="-1.60" angle="90.00" type="human" speed="13.59" pos="264.64" lane="e0_0" slope="0.00"/>
        <vehicle id="background.3" x="152.81" y="-1.60" angle="90.00" type="human" speed="12.76" pos="152.81" lane="e0_0" slope="0.00"/>
        <vehicle id="background.4" x="67.75" y="-1.60" angle="90.00" type="human" speed="12.73" pos="67.75" lane="e0_0" slope="0.00"/>
    </timestep>
    <timestep time="40.50">
        <vehicle id="background.0" x="345.73" y="-1.60" angle="90.00" type="human" speed="12.98" pos="45.73" lane="e1_0" slope="0.00"/>
        <vehicle id="background.1" x="324.40" y="-1.60" angle="90.00" type="human" speed="12.54" pos="24.40" lane="e1_0" slope="0.00"/>
        <vehicle id="background.2" x="271.54" y="-1.60" angle="90.00" type="human" speed="13.79" pos="271.54" lane="e0_0" slope="0.00"/>
        <vehicle id="background.3" x="159.22" y="-1.60" angle="90.00" type="human" speed="12.82" pos="159.22" lane="e0_0" slope="0.00"/>
        <vehicle id="background.4" x="74.03" y="-1.60" angle="90.00" type="human" speed="12.55" pos="74.03" lane="e0_0" slope="0.00"/>
    </timestep>
    <timestep time="41.00">
        <vehicle id="background.1" x="330.78" y="-1.60" angle="90.00" type="human" speed="12.76" pos="30.78" lane="e1_0" slope="0.00"/>
        <vehicle id="background.2" x="278.29" y="-1.60" angle="90.00" type="human" speed="13.51" pos="278.29" lane="e0_0" slope="0.00"/>
        <vehicle id="background.3" x="165.72" y="-1.60" angle="90.00" type="human" speed="13.00" pos="165.72" lane="e0_0" slope="0.00"/>
        <vehicle id="background.4" x="80.30" y="-1.60" angle="90.00" type="human" speed="12.55" pos="80.30" lane="e0_0" slope="0.00"/>
    </timestep>
    <timestep time="41.50">
        <vehicle id="background.1" x="337.47" y="-1.60" angle="90.00" type="human" speed="13.38" pos="37.47" lane="e1_0" slope="0.00"/>
        <vehicle id="background.2" x="285.11" y="-1.60" angle="90.00" type="human" speed="13.64" pos="285.11" lane="e0_0" slope="0.00"/>
        <vehicle id="background.3" x="172.13" y="-1.60" angle="90.00" type="human" speed="12.81" pos="172.13" lane="e0_0" slope="0.00"/>