<?xml version="1.0" encoding="UTF-8"?>

<!-- generated on 2026-05-14 17:06:50 by Eclipse SUMO sumo Version 1.24.0
<sumoConfiguration xmlns:xsi="http://www.w3.org/2001/XMLSchema-instance" xsi:noNamespaceSchemaLocation="http://sumo.dlr.de/xsd/sumoConfiguration.xsd">

    <input>
        <net-file value="scenarios/simple_arterial/simple_arterial.net.xml"/>
        <route-files value="scenarios/simple_arterial/simple_arterial_glosa.rou.xml"/>
        <additional-files value="scenarios/simple_arterial/simple_arterial.tls.xml"/>
    </input>

    <output>
        <fcd-output value="runs/fcd_expert_glosa/episode_00078_seed_120.fcd.xml"/>
    </output>

    <time>
        <begin value="0"/>
        <end value="900"/>
        <step-length value="0.5"/>
    </time>

    <report>
        <no-warnings value="true"/>
    </report>

    <traci_server>
        <remote-port value="37703"/>
    </traci_server>

    <random_number>
        <seed value="120"/>
    </random_number>

</sumoConfiguration>
-->

<fcd-export xmlns:xsi="http://www.w3.org/2001/XMLSchema-instance" xsi:noNamespaceSchemaLocation="http://sumo.dlr.de/xsd/fcd_file.xsd">
    <timestep time="0.00"/>
    <timestep time="0.50"/>
    <timestep time="1.00"/>
    <timestep time="1.50"/>
    <timestep time="2.00"/>
    <timestep time="2.50"/>
    <timestep time="3.00"/>
    <timestep time="3.50"/>
    <timestep time="4.00"/>
    <timestep time="4.50"/>
    <timestep time="5.00"/>
    <timestep time="5.50"/>
    <timestep time="6.00"/>
    <timestep time="6.50"/>
    <timestep time="7.00"/>
    <timestep time="7.50"/>
    <timestep time="8.00"/>
    <timestep time="8.50"/>
    <timestep time="9.00"/>
    <timestep time="9.50"/>
    <timestep time="10.00"/>
    <timestep time="10.50"/>
    <timestep time="11.00"/>
    <timestep time="11.50"/>
    <timestep time="12.00"/>
    <timestep time="12.50"/>
    <timestep time="13.00"/>
    <timestep time="13.50">
        <vehicle id="background.0" x="5.10" y="-1.60" angle="90.00" type="human" speed="13.89" pos="5.10" lane="e0_0" slope="0.00"/>
    </timestep>
    <timestep time="14.00">
        <vehicle id="background.0" x="12.02" y="-1.60" angle="90.00" type="human" speed="13.83" pos="12.02" lane="e0_0" slope="0.00"/>
    </timestep>
    <timestep time="14.50">
        <vehicle id="background.0" x="18.76" y="-1.60" angle="90.00" type="human" speed="13.49" pos="18.76" lane="e0_0" slope="0.00"/>
    </timestep>
    <timestep time="15.00">
        <vehicle id="background.0" x="25.66" y="-1.60" angle="90.00" type="human" speed="13.78" pos="25.66" lane="e0_0" slope="0.00"/>
    </timestep>
    <timestep time="15.50">
        <vehicle id="background.0" x="32.35" y="-1.60" angle="90.00" type="human" speed="13.39" pos="32.35" lane="e0_0" slope="0.00"/>
    </timestep>
    <timestep time="16.00">
        <vehicle id="background.0" x="39.24" y="-1.60" angle="90.00" type="human" speed="13.77" pos="39.24" lane="e0_0" slope="0.00"/>
    </timestep>
    <timestep time="16.50">
        <vehicle id="background.0" x="45.98" y="-1.60" angle="90.00" type="human" speed="13.49" pos="45.98" lane="e0_0" slope="0.00"/>
    </timestep>
    <timestep time="17.00">
        <vehicle id="background.0" x="52.89" y="-1.60" angle="90.00" type="human" speed="13.81" pos="52.89" lane="e0_0" slope="0.00"/>
    </timestep>
    <timestep time="17.50">
        <vehicle id="background.0" x="59.77" y="-1.60" angle="90.00" type="human" speed="13.76" pos="59.77" lane="e0_0" slope="0.00"/>
    </timestep>
    <timestep time="18.00">
        <vehicle id="background.0" x="66.51" y="-1.60" angle="90.00" type="human" speed="13.47" pos="66.51" lane="e0_0" slope="0.00"/>
    </timestep>
    <timestep time="18.50">
        <vehicle id="background.0" x="73.32" y="-1.60" angle="90.00" type="human" speed="13.61" pos="73.32" lane="e0_0" slope="0.00"/>
    </timestep>
    <timestep time="19.00">
        <vehicle id="background.0" x="80.16" y="-1.60" angle="90.00" type="human" speed="13.69" pos="80.16" lane="e0_0" slope="0.00"/>
    </timestep>
    <timestep time="19.50">
        <vehicle id="background.0" x="87.08" y="-1.60" angle="90.00" type="human" speed="13.85" pos="87.08" lane="e0_0" slope="0.00"/>
    </timestep>
    <timestep time="20.00">
        <vehicle id="background.0" x="93.89" y="-1.60" angle="90.00" type="human" speed="13.61" pos="93.89" lane="e0_0" slope="0.00"/>
    </timestep>
    <timestep time="20.50">
        <vehicle id="background.0" x="100.70" y="-1.60" angle="90.00" type="human" speed="13.61" pos="100.70" lane="e0_0" slope="0.00"/>
    </timestep>
    <timestep time="21.00">
        <vehicle id="background.0" x="107.46" y="-1.60" angle="90.00" type="human" speed="13.52" pos="107.46" lane="e0_0" slope="0.00"/>
    </timestep>
    <timestep time="21.50">
        <vehicle id="background.0" x="114.23" y="-1.60" angle="90.00" type="human" speed="13.54" pos="114.23" lane="e0_0" slope="0.00"/>
    </timestep>
    <timestep time="22.00">
        <vehicle id="background.0" x="121.11" y="-1.60" angle="90.00" type="human" speed="13.77" pos="121.11" lane="e0_0" slope="0.00"/>
    </timestep>
    <timestep time="22.50">
        <vehicle id="background.0" x="127.90" y="-1.60" angle="90.00" type="human" speed="13.59" pos="127.90" lane="e0_0" slope="0.00"/>
    </timestep>
    <timestep time="23.00">
        <vehicle id="background.0" x="134.61" y="-1.60" angle="90.00" type="human" speed="13.41" pos="134.61" lane="e0_0" slope="0.00"/>
    </timestep>
    <timestep time="23.50">
        <vehicle id="background.0" x="141.36" y="-1.60" angle="90.00" type="human" speed="13.50" pos="141.36" lane="e0_0" slope="0.00"/>
    </timestep>
    <timestep time="24.00">
        <vehicle id="background.0" x="148.07" y="-1.60" angle="90.00" type="human" speed="13.41" pos="148.07" lane="e0_0" slope="0.00"/>
    </timestep>
    <timestep time="24.50">
        <vehicle id="background.0" x="154.86" y="-1.60" angle="90.00" type="human" speed="13.60" pos="154.86" lane="e0_0" slope="0.00"/>
    </timestep>
    <timestep time="25.00">
        <vehicle id="background.0" x="161.69" y="-1.60" angle="90.00" type="human" speed="13.65" pos="161.69" lane="e0_0" slope="0.00"/>
    </timestep>
    <timestep time="25.50">
        <vehicle id="background.0" x="168.45" y="-1.60" angle="90.00" type="human" speed="13.52" pos="168.45" lane="e0_0" slope="0.00"/>
    </timestep>
    <timestep time="26.00">
        <vehicle id="background.0" x="175.39" y="-1.60" angle="90.00" type="human" speed="13.88" pos="175.39" lane="e0_0" slope="0.00"/>
    </timestep>
    <timestep time="26.50">
        <vehicle id="background.0" x="182.28" y="-1.60" angle="90.00" type="human" speed="13.79" pos="182.28" lane="e0_0" slope="0.00"/>
    </timestep>
    <timestep time="27.00">
        <vehicle id="background.0" x="189.02" y="-1.60" angle="90.00" type="human" speed="13.46" pos="189.02" lane="e0_0" slope="0.00"/>
    </timestep>
    <timestep time="27.50">
        <vehicle id="background.0" x="195.84" y="-1.60" angle="90.00" type="human" speed="13.65" pos="195.84" lane="e0_0" slope="0.00"/>
    </timestep>
    <timestep time="28.00">
        <vehicle id="background.0" x="202.68" y="-1.60" angle="90.00" type="human" speed="13.69" pos="202.68" lane="e0_0" slope="0.00"/>
    </timestep>
    <timestep time="28.50">
        <vehicle id="background.0" x="209.58" y="-1.60" angle="90.00" type="human" speed="13.79" pos="209.58" lane="e0_0" slope="0.00"/>
    </timestep>
    <timestep time="29.00">
        <vehicle id="background.0" x="216.37" y="-1.60" angle="90.00" type="human" speed="13.58" pos="216.37" lane="e0_0" slope="0.00"/>
    </timestep>
    <timestep time="29.50">
        <vehicle id="background.0" x="223.28" y="-1.60" angle="90.00" type="human" speed="13.82" pos="223.28" lane="e0_0" slope="0.00"/>
    </timestep>
    <timestep time="30.00">
        <vehicle id="background.0" x="230.15" y="-1.60" angle="90.00" type="human" speed="13.74" pos="230.15" lane="e0_0" slope="0.00"/>
    </timestep>
    <timestep time="30.50">
        <vehicle id="background.0" x="237.07" y="-1.60" angle="90.00" type="human" speed="13.85" pos="237.07" lane="e0_0" slope="0.00"/>
    </timestep>
    <timestep time="31.00">
        <vehicle id="background.0" x="243.78" y="-1.60" angle="90.00" type="human" speed="13.43" pos="243.78" lane="e0_0" slope="0.00"/>
    </timestep>
    <timestep time="31.50">
        <vehicle id="background.0" x="250.55" y="-1.60" angle="90.00" type="human" speed="13.54" pos="250.55" lane="e0_0" slope="0.00"/>
    </timestep>
    <timestep time="32.00">
        <vehicle id="background.0" x="257.40" y="-1.60" angle="90.00" type="human" speed="13.69" pos="257.40" lane="e0_0" slope="0.00"/>
    </timestep>
    <timestep time="32.50">
        <vehicle id="background.0" x="264.28" y="-1.60" angle="90.00" type="human" speed="13.76" pos="264.28" lane="e0_0" slope="0.00"/>
    </timestep>
    <timestep time="33.00">
        <vehicle id="background.0" x="271.08" y="-1.60" angle="90.00" type="human" speed="13.61" pos="271.08" lane="e0_0" slope="0.00"/>
    </timestep>
    <timestep time="33.50">
        <vehicle id="background.0" x="277.86" y="-1.60" angle="90.00" type="human" speed="13.57" pos="277.86" lane="e0_0" slope="0.00"/>
    </timestep>
    <timestep time="34.00">
        <vehicle id="background.0" x="284.75" y="-1.60" angle="90.00" type="human" speed="13.77" pos="284.75" lane="e0_0" slope="0.00"/>
    </timestep>
    <timestep time="34.50">
        <vehicle id="background.0" x="291.49" y="-1.60" angle="90.00" type="human" speed="13.48" pos="291.49" lane="e0_0" slope="0.00"/>
    </timestep>
    <timestep time="35.00">
        <vehicle id="background.0" x="298.38" y="-1.60" angle="90.00" type="human" speed="13.78" pos="298.38" lane="e0_0" slope="0.00"/>
    </timestep>
    <timestep time="35.50">
        <vehicle id="background.0" x="305.12" y="-1.60" angle="90.00" type="human" speed="13.69" pos="5.12" lane="e1_0" slope="0.00"/>
    </timestep>
    <timestep time="36.00">
        <vehicle id="background.0" x="312.03" y="-1.60" angle="90.00" type="human" speed="13.81" pos="12.03" lane="e1_0" slope="0.00"/>
    </timestep>
    <timestep time="36.50">
        <vehicle id="background.0" x="318.77" y="-1.60" angle="90.00" type="human" speed="13.49" pos="18.77" lane="e1_0" slope="0.00"/>
    </timestep>
    <timestep time="37.00">
        <vehicle id="background.0" x="325.54" y="-1.60" angle="90.00" type="human" speed="13.54" pos="25.54" lane="e1_0" slope="0.00"/>
    </timestep>
    <timestep time="37.50">
        <vehicle id="background.0" x="332.37" y="-1.60" angle="90.00" type="human" speed="13.65" pos="32.37" lane="e1_0" slope="0.00"/>
    </timestep>
    <timestep time="38.00">
        <vehicle id="background.0" x="339.25" y="-1.60" angle="90.00" type="human" speed="13.76" pos="39.25" lane="e1_0" slope="0.00"/>
    </timestep>
    <timestep time="38.50">
        <vehicle id="background.0" x="345.98" y="-1.60" angle="90.00" type="human" speed="13.47" pos="45.98" lane="e1_0" slope="0.00"/>
    </timestep>
    <timestep time="39.00"/>
    <timestep time="39.50"/>
    <timestep time="40.00"/>
    <timestep time="40.50"/>
    <timestep time="41.00"/>
    <timestep time="41.50"/>
    <timestep time="42.00"/>
    <timestep time="42.50"/>
    <timestep time="43.00"/>
    <timestep time="43.50"/>
    <timestep time="44.00"/>
    <timestep time="44.50"/>
    <timestep time="45.00"/>
    <timestep time="45.50"/>
    <timestep time="46.00"/>
    <timestep time="46.50"/>
    <timestep time="47.00"/>
    <timestep time="47.50"/>
    <timestep time="48.00"/>
    <timestep time="48.50"/>
    <timestep time="49.00"/>
    <timestep time="49.50"/>
    <timestep time="50.00"/>
    <timestep time="50.50"/>
    <timestep time="51.00"/>
    <timestep time="51.50"/>
    <timestep time="52.00"/>
    <timestep time="52.50"/>
    <timestep time="53.00"/>
    <timestep time="53.50"/>
    <timestep time="54.00"/>
    <timestep time="54.50"/>
    <timestep time="55.00"/>
    <timestep time="55.50"/>
    <timestep time="56.00"/>
    <timestep time="56.50"/>
    <timestep time="57.00"/>
    <timestep time="57.50"/>
    <timestep time="58.00">
        <vehicle id="background.1" x="5.10" y="-1.60" angle="90.00" type="human" speed="13.89" pos="5.10" lane="e0_0" slope="0.00"/>
    </timestep>
    <timestep time="58.50">
        <vehicle id="background.1" x="12.04" y="-1.60" angle="90.00" type="human" speed="13.87" pos="12.04" lane="e0_0" slope="0.00"/>
    </timestep>
    <timestep time="59.00">
        <vehicle id="background.1" x="18.78" y="-1.60" angle="90.00" type="human" speed="13.48" pos="18.78" lane="e0_0" slope="0.00"/>
    </timestep>
    <timestep time="59.50">
        <vehicle id="background.1" x="25.58" y="-1.60" angle="90.00" type="human" speed="13.60" pos="25.58" lane="e0_0" slope="0.00"/>
    </timestep>
    <timestep time="60.00">
        <vehicle id="background.1" x="32.32" y="-1.60" angle="90.00" type="human" speed="13.50" pos="32.32" lane="e0_0" slope="0.00"/>
    </timestep>
    <timestep time="60.50">
        <vehicle id="background.1" x="39.06" y="-1.60" angle="90.00" type="human" speed="13.48" pos="39.06" lane="e0_0" slope="0.00"/>
    </timestep>
    <timestep time="61.00">
        <vehicle id="background.1" x="45.97" y="-1.60" angle="90.00" type="human" speed="13.82" pos="45.97" lane="e0_0" slope="0.00"/>
    </timestep>
    <timestep time="61.50">
        <vehicle id="background.1" x="52.72" y="-1.60" angle="90.00" type="human" speed="13.50" pos="52.72" lane="e0_0" slope="0.00"/>
    </timestep>
    <timestep time="62.00">
        <vehicle id="background.1" x="59.55" y="-1.60" angle="90.00" type="human" speed="13.65" pos="59.55" lane="e0_0" slope="0.00"/>
    </timestep>
    <timestep time="62.50">
        <vehicle id="background.1" x="66.26" y="-1.60" angle="90.00" type="human" speed="13.42" pos="66.26" lane="e0_0" slope="0.00"/>
    </timestep>
    <timestep time="63.00">
        <vehicle id="background.1" x="73.18" y="-1.60" angle="90.00" type="human" speed="13.84" pos="73.18" lane="e0_0" slope="0.00"/>
    </timestep>
    <timestep time="63.50">
        <vehicle id="background.1" x="79.94" y="-1.60" angle="90.00" type="human" speed="13.52" pos="79.94" lane="e0_0" slope="0.00"/>
    </timestep>
    <timestep time="64.00">
        <vehicle id="background.1" x="86.72" y="-1.60" angle="90.00" type="human" speed="13.57" pos="86.72" lane="e0_0" slope="0.00"/>
    </timestep>
    <timestep time="64.50">
        <vehicle id="background.1" x="93.50" y="-1.60" angle="90.00" type="human" speed="13.55" pos="93.50" lane="e0_0" slope="0.00"/>
    </timestep>
    <timestep time="65.00">
        <vehicle id="background.1" x="100.31" y="-1.60" angle="90.00" type="human" speed="13.63" pos="100.31" lane="e0_0" slope="0.00"/>
    </timestep>
    <timestep time="65.50">
        <vehicle id="background.1" x="107.07" y="-1.60" angle="90.00" type="human" speed="13.52" pos="107.07" lane="e0_0" slope="0.00"/>
    </timestep>
    <timestep time="66.00">
        <vehicle id="background.1" x="113.80" y="-1.60" angle="90.00" type="human" speed="13.45" pos="113.80" lane="e0_0" slope="0.00"/>
    </timestep>
    <timestep time="66.50">
        <vehicle id="background.1" x="120.62" y="-1.60" angle="90.00" type="human" speed="13.63" pos="120.62" lane="e0_0" slope="0.00"/>
    </timestep>
    <timestep time="67.00">
        <vehicle id="background.1" x="127.36" y="-1.60" angle="90.00" type="human" speed="13.49" pos="127.36" lane="e0_0" slope="0.00"/>
    </timestep>
    <timestep time="67.50">
        <vehicle id="background.1" x="134.19" y="-1.60" angle="90.00" type="human" speed="13.66" pos="134.19" lane="e0_0" slope="0.00"/>
    </timestep>
    <timestep time="68.00">
        <vehicle id="background.1" x="140.95" y="-1.60" angle="90.00" type="human" speed="13.53" pos="140.95" lane="e0_0" slope="0.00"/>
    </timestep>
    <timestep time="68.50">
        <vehicle id="background.1" x="147.74" y="-1.60" angle="90.00" type="human" speed="13.57" pos="147.74" lane="e0_0" slope="0.00"/>
    </timestep>
    <timestep time="69.00">
        <vehicle id="background.1" x="154.61" y="-1.60" angle="90.00" type="human" speed="13.73" pos="154.61" lane="e0_0" slope="0.00"/>
    </timestep>
    <timestep time="69.50">
        <vehicle id="background.1" x="161.35" y="-1.60" angle="90.00" type="human" speed="13.48" pos="161.35" lane="e0_0" slope="0.00"/>
        <vehicle id="background.2" x="5.10" y="-1.60" angle="90.00" type="human" speed="13.89" pos="5.10" lane="e0_0" slope="0.00"/>
    </timestep>
    <timestep time="70.00">
        <vehicle id="background.1" x="168.04" y="-1.60" angle="90.00" type="human" speed="13.40" pos="168.04" lane="e0_0" slope="0.00"/>
        <vehicle id="background.2" x="12.01" y="-1.60" angle="90.00" type="human" speed="13.82" pos="12.01" lane="e0_0" slope="0.00"/>
    </timestep>
    <timestep time="70.50">
        <vehicle id="background.1" x="174.83" y="-1.60" angle="90.00" type="human" speed="13.58" pos="174.83" lane="e0_0" slope="0.00"/>
        <vehicle id="background.2" x="18.95" y="-1.60" angle="90.00" type="human" speed="13.88" pos="18.95" lane="e0_0" slope="0.00"/>
        <vehicle id="background.3" x="5.10" y="-1.60" angle="90.00" type="human" speed="11.78" pos="5.10" lane="e0_0" slope="0.00"/>
    </timestep>
    <timestep time="71.00">
        <vehicle id="background.1" x="181.55" y="-1.60" angle="90.00" type="human" speed="13.44" pos="181.55" lane="e0_0" slope="0.00"/>
        <vehicle id="background.2" x="25.80" y="-1.60" angle="90.00" type="human" speed="13.70" pos="25.80" lane="e0_0" slope="0.00"/>
        <vehicle id="background.3" x="10.92" y="-1.60" angle="90.00" type="human" speed="11.64" pos="10.92" lane="e0_0" slope="0.00"/>
    </timestep>
    <timestep time="71.50">
        <vehicle id="background.1" x="188.39" y="-1.60" angle="90.00" type="human" speed="13.68" pos="188.39" lane="e0_0" slope="0.00"/>
        <vehicle id="background.2" x="32.62" y="-1.60" angle="90.00" type="human" speed="13.65" pos="32.62" lane="e0_0" slope="0.00"/>
        <vehicle id="background.3" x="16.69" y="-1.60" angle="90.00" type="human" speed="11.53" pos="16.69" lane="e0_0" slope="0.00"/>
    </timestep>
    <timestep time="72.00">
        <vehicle id="background.1" x="195.24" y="-1.60" angle="90.00" type="human" speed="13.70" pos="195.24" lane="e0_0" slope="0.00"/>
        <vehicle id="background.2" x="39.35" y="-1.60" angle="90.00" type="human" speed="13.46" pos="39.35" lane="e0_0" slope="0.00"/>
        <vehicle id="background.3" x="22.54" y="-1.60" angle="90.00" type="human" speed="11.70" pos="22.54" lane="e0_0" slope="0.00"/>
        <vehicle id="background.4" x="5.10" y="-1.60" angle="90.00" type="human" speed="10.70" pos="5.10" lane="e0_0" slope="0.00"/>
    </timestep>
    <timestep time="72.50">
        <vehicle id="background.1" x="202.01" y="-1.60" angle="90.00" type="human" speed="13.53" pos="202.01" lane="e0_0" slope="0.00"/>
        <vehicle id="background.2" x="46.11" y="-1.60" angle="90.00" type="human" speed="13.51" pos="46.11" lane="e0_0" slope="0.00"/>
        <vehicle id="background.3" x="28.66" y="-1.60" angle="90.00" type="human" speed="12.25" pos="28.66" lane="e0_0" slope="0.00"/>
        <vehicle id="background.4" x="10.43" y="-1.60" angle="90.00" type="human" speed="10.66" pos="10.43" lane="e0_0" slope="0.00"/>
    </timestep>
    <timestep time="73.00">
        <vehicle id="background.1" x="208.81" y="-1.60" angle="90.00" type="human" speed="13.59" pos="208.81" lane="e0_0" slope="0.00"/>
        <vehicle id="background.2" x="52.97" y="-1.60" angle="90.00" type="human" speed="13.73" pos="52.97" lane="e0_0" slope="0.00"/>
        <vehicle id="background.3" x="34.74" y="-1.60" angle="90.00" type="human" speed="12.17" pos="34.74" lane="e0_0" slope="0.00"/>
        <vehicle id="background.4" x="15.73" y="-1.60" angle="90.00" type="human" speed="10.60" pos="15.73" lane="e0_0" slope="0.00"/>
    </timestep>
    <timestep time="73.50">
        <vehicle id="background.1" x="215.73" y="-1.60" angle="90.00" type="human" speed="13.85" pos="215.73" lane="e0_0" slope="0.00"/>
        <vehicle id="background.2" x="59.77" y="-1.60" angle="90.00" type="human" speed="13.59" pos="59.77" lane="e0_0" slope="0.00"/>
        <vehicle id="background.3" x="41.18" y="-1.60" angle="90.00" type="human" speed="12.86" pos="41.18" lane="e0_0" slope="0.00"/>
        <vehicle id="background.4" x="20.87" y="-1.60" angle="90.00" type="human" speed="10.27" pos="20.87" lane="e0_0" slope="0.00"/>
    </timestep>
    <timestep time="74.00">
        <vehicle id="background.1" x="222.67" y="-1.60" angle="90.00" type="human" speed="13.88" pos="222.67" lane="e0_0" slope="0.00"/>
        <vehicle id="background.2" x="66.67" y="-1.60" angle="90.00" type="human" speed="13.80" pos="66.67" lane="e0_0" slope="0.00"/>
        <vehicle id="background.3" x="47.56" y="-1.60" angle="90.00" type="human" speed="12.77" pos="47.56" lane="e0_0" slope="0.00"/>
        <vehicle id="background.4" x="26.18" y="-1.60" angle="90.00" type="human" speed="10.63" pos="26.18" lane="e0_0" slope="0.00"/>
    </timestep>
    <timestep time="74.50">
        <vehicle id="background.1" x="229.49" y="-1.60" angle="90.00" type="human" speed="13.64" pos="229.49" lane="e0_0" slope="0.00"/>
        <vehicle id="background.2" x="73.42" y="-1.60" angle="90.00" type="human" speed="13.51" pos="73.42" lane="e0_0" slope="0.00"/>
        <vehicle id="background.3" x="53.97" y="-1.60" angle="90.00" type="human" speed="12.81" pos="53.97" lane="e0_0" slope="0.00"/>
        <vehicle id="background.4" x="31.41" y="-1.60" angle="90.00" type="human" speed="10.45" pos="31.41" lane="e0_0" slope="0.00"/>
    </timestep>
    <timestep time="75.00">
        <vehicle id="background.1" x="236.42" y="-1.60" angle="90.00" type="human" speed="13.86" pos="236.42" lane="e0_0" slope="0.00"/>
        <vehicle id="background.2" x="80.30" y="-1.60" angle="90.00" type="human" speed="13.74" pos="80.30" lane="e0_0" slope="0.00"/>
        <vehicle id="background.3" x="60.25" y="-1.60" angle="90.00" type="human" speed="12.57" pos="60.25" lane="e0_0" slope="0.00"/>
        <vehicle id="background.4" x="36.52" y="-1.60" angle="90.00" type="human" speed="10.23" pos="36.52" lane="e0_0" slope="0.00"/>
    </timestep>
    <timestep time="75.50">
        <vehicle id="background.1" x="243.26" y="-1.60" angle="90.00" type="human" speed="13.68" pos="243.26" lane="e0_0" slope="0.00"/>
        <vehicle id="background.2" x="87.12" y="-1.60" angle="90.00" type="human" speed="13.64" pos="87.12" lane="e0_0" slope="0.00"/>
        <vehicle id="background.3" x="66.64" y="-1.60" angle="90.00" type="human" speed="12.77" pos="66.64" lane="e0_0" slope="0.00"/>
        <vehicle id="background.4" x="41.70" y="-1.60" angle="90.00" type="human" speed="10.36" pos="41.70" lane="e0_0" slope="0.00"/>
    </timestep>
    <timestep time="76.00">
        <vehicle id="background.1" x="249.96" y="-1.60" angle="90.00" type="human" speed="13.39" pos="249.96" lane="e0_0" slope="0.00"/>
        <vehicle id="background.2" x="93.98" y="-1.60" angle="90.00" type="human" speed="13.73" pos="93.98" lane="e0_0" slope="0.00"/>
        <vehicle id="background.3" x="72.90" y="-1.60" angle="90.00" type="human" speed="12.51" pos="72.90" lane="e0_0" slope="0.00"/>
        <vehicle id="background.4" x="46.80" y="-1.60" angle="90.00" type="human" speed="10.21" pos="46.80" lane="e0_0" slope="0.00"/>
    </timestep>
    <timestep time="76.50">
        <vehicle id="background.1" x="256.76" y="-1.60" angle="90.00" type="human" speed="13.60" pos="256.76" lane="e0_0" slope="0.00"/>
        <vehicle id="background.2" x="100.89" y="-1.60" angle="90.00" type="human" speed="13.82" pos="100.89" lane="e0_0" slope="0.00"/>
        <vehicle id="background.3" x="79.18" y="-1.60" angle="90.00" type="human" speed="12.57" pos="79.18" lane="e0_0" slope="0.00"/>
        <vehicle id="background.4" x="52.02" y="-1.60" angle="90.00" type="human" speed="10.44" pos="52.02" lane="e0_0" slope="0.00"/>
    </timestep>
    <timestep time="77.00">
        <vehicle id="background.1" x="263.58" y="-1.60" angle="90.00" type="human" speed="13.63" pos="263.58" lane="e0_0" slope="0.00"/>
        <vehicle id="background.2" x="107.68" y="-1.60" angle="90.00" type="human" speed="13.58" pos="107.68" lane="e0_0" slope="0.00"/>
        <vehicle id="background.3" x="85.45" y="-1.60" angle="90.00" type="human" speed="12.54" pos="85.45" lane="e0_0" slope="0.00"/>
        <vehicle id="background.4" x="57.31" y="-1.60" angle="90.00" type="human" speed="10.57" pos="57.31" lane="e0_0" slope="0.00"/>
        <vehicle id="ego" x="5.10" y="-1.60" angle="90.00" type="ego_glosa_type" speed="0.00" pos="5.10" lane="e0_0" slope="0.00"/>
    </timestep>
    <timestep time="77.50">
        <vehicle id="background.1" x="270.37" y="-1.60" angle="90.00" type="human" speed="13.59" pos="270.37" lane="e0_0" slope="0.00"/>
        <vehicle id="background.2" x="114.45" y="-1.60" angle="90.00" type="human" speed="13.53" pos="114.45" lane="e0_0" slope="0.00"/>
        <vehicle id="background.3" x="91.90" y="-1.60" angle="90.00" type="human" speed="12.89" pos="91.90" lane="e0_0" slope="0.00"/>
        <vehicle id="background.4" x="62.47" y="-1.60" angle="90.00" type="human" speed="10.33" pos="62.47" lane="e0_0" slope="0.00"/>
        <vehicle id="ego" x="5.60" y="-1.60" angle="90.00" type="ego_glosa_type" speed="1.00" pos="5.60" lane="e0_0" slope="0.00"/>
    </timestep>
    <timestep time="78.00">
        <vehicle id="background.1" x="277.31" y="-1.60" angle="90.00" type="human" speed="13.87" pos="277.31" lane="e0_0" slope="0.00"/>
        <vehicle id="background.2" x="121.16" y="-1.60" angle="90.00" type="human" speed="13.41" pos="121.16" lane="e0_0" slope="0.00"/>
        <vehicle id="background.3" x="98.39" y="-1.60" angle="90.00" type="human" speed="12.99" pos="98.39" lane="e0_0" slope="0.00"/>
        <vehicle id="background.4" x="67.62" y="-1.60" angle="90.00" type="human" speed="10.29" pos="67.62" lane="e0_0" slope="0.00"/>
        <vehicle id="ego" x="6.60" y="-1.60" angle="90.00" type="ego_glosa_type" speed="2.00" pos="6.60" lane="e0_0" slope="0.00"/>
    </timestep>
    <timestep time="78.50">
        <vehicle id="background.1" x="283.52" y="-1.60" angle="90.00" type="human" speed="12.43" pos="283.52" lane="e0_0" slope="0.00"/>
        <vehicle id="background.2" x="128.04" y="-1.60" angle="90.00" type="human" speed="13.78" pos="128.04" lane="e0_0" slope="0.00"/>
        <vehicle id="background.3" x="104.83" y="-1.60" angle="90.00" type="human" speed="12.87" pos="104.83" lane="e0_0" slope="0.00"/>
        <vehicle id="background.4" x="72.79" y="-1.60" angle="90.00" type="human" speed="10.35" pos="72.79" lane="e0_0" slope="0.00"/>
        <vehicle id="ego" x="8.10" y="-1.60" angle="90.00" type="ego_glosa_type" speed="3.00" pos="8.10" lane="e0_0" slope="0.00"/>
    </timestep>
    <timestep time="79.00">
        <vehicle id="background.1" x="288.65" y="-1.60" angle="90.00" type="human" speed="10.26" pos="288.65" lane="e0_0" slope="0.00"/>
        <vehicle id="background.2" x="134.79" y="-1.60" angle="90.00" type="human" speed="13.49" pos="134.79" lane="e0_0" slope="0.00"/>
        <vehicle id="background.3" x="111.11" y="-1.60" angle="90.00" type="human" speed="12.57" pos="111.11" lane="e0_0" slope="0.00"/>
        <vehicle id="background.4" x="78.14" y="-1.60" angle="90.00" type="human" speed="10.69" pos="78.14" lane="e0_0" slope="0.00"/>
        <vehicle id="ego" x="10.10" y="-1.60" angle="90.00" type="ego_glosa_type" speed="4.00" pos="10.10" lane="e0_0" slope="0.00"/>
    </timestep>
    <timestep time="79.50">
        <vehicle id="background.1" x="292.74" y="-1.60" angle="90.00" type="human" speed="8.18" pos="292.74" lane="e0_0" slope="0.00"/>
        <vehicle id="background.2" x="141.62" y="-1.60" angle="90.00" type="human" speed="13.65" pos="141.62" lane="e0_0" slope="0.00"/>
        <vehicle id="background.3" x="117.44" y="-1.60" angle="90.00" type="human" speed="12.65" pos="117.44" lane="e0_0" slope="0.00"/>
        <vehicle id="background.4" x="83.24" y="-1.60" angle="90.00" type="human" speed="10.21" pos="83.24" lane="e0_0" slope="0.00"/>
        <vehicle id="background.5" x="5.10" y="-1.60" angle="90.00" type="human" speed="1.62" pos="5.10" lane="e0_0" slope="0.00"/>
        <vehicle id="ego" x="12.60" y="-1.60" angle="90.00" type="ego_glosa_type" speed="5.00" pos="12.60" lane="e0_0" slope="0.00"/>
    </timestep>
    <timestep time="80.00">
        <vehicle id="background.1" x="295.82" y="-1.60" angle="90.00" type="human" speed="6.15" pos="295.82" lane="e0_0" slope="0.00"/>
        <vehicle id="background.2" x="148.36" y="-1.60" angle="90.00" type="human" speed="13.49" pos="148.36" lane="e0_0" slope="0.00"/>
        <vehicle id="background.3" x="123.75" y="-1.60" angle="90.00" type="human" speed="12.63" pos="123.75" lane="e0_0" slope="0.00"/>
        <vehicle id="background.4" x="88.36" y="-1.60" angle="90.00" type="human" speed="10.22" pos="88.36" lane="e0_0" slope="0.00"/>
        <vehicle id="background.5" x="5.85" y="-1.60" angle="90.00" type="human" speed="1.51" pos="5.85" lane="e0_0" slope="0.00"/>
        <vehicle id="ego" x="15.60" y="-1.60" angle="90.00" type="ego_glosa_type" speed="6.00" pos="15.60" lane="e0_0" slope="0.00"/>
    </timestep>
    <timestep time="80.50">
        <vehicle id="background.1" x="297.77" y="-1.60" angle="90.00" type="human" speed="3.90" pos="297.77" lane="e0_0" slope="0.00"/>
        <vehicle id="background.2" x="155.10" y="-1.60" angle="90.00" type="human" speed="13.49" pos="155.10" lane="e0_0" slope="0.00"/>
        <vehicle id="background.3" x="130.21" y="-1.60" angle="90.00" type="human" speed="12.93" pos="130.21" lane="e0_0" slope="0.00"/>