<?xml version="1.0" encoding="UTF-8"?>

<!-- generated on 2026-05-14 17:05:21 by Eclipse SUMO sumo Version 1.24.0
<sumoConfiguration xmlns:xsi="http://www.w3.org/2001/XMLSchema-instance" xsi:noNamespaceSchemaLocation="http://sumo.dlr.de/xsd/sumoConfiguration.xsd">

    <input>
        <net-file value="scenarios/simple_arterial/simple_arterial.net.xml"/>
        <route-files value="scenarios/simple_arterial/simple_arterial_glosa.rou.xml"/>
        <additional-files value="scenarios/simple_arterial/simple_arterial.tls.xml"/>
    </input>

    <output>
        <fcd-output value="runs/fcd_expert_glosa/episode_00000_seed_42.fcd.xml"/>
    </output>

    <time>
        <begin value="0"/>
        <end value="900"/>
        <step-length value="0.5"/>
    </time>

    <report>
        <no-warnings value="true"/>
    </report>

    <traci_server>
        <remote-port value="37703"/>
    </traci_server>

    <random_number>
        <seed value="42"/>
    </random_number>

</sumoConfiguration>
-->

<fcd-export xmlns:xsi="http://www.w3.org/2001/XMLSchema-instance" xsi:noNamespaceSchemaLocation="http://sumo.dlr.de/xsd/fcd_file.xsd">
    <timestep time="0.00"/>
    <timestep time="0.50"/>
    <timestep time="1.00"/>
    <timestep time="1.50"/>
    <timestep time="2.00"/>
    <timestep time="2.50"/>
    <timestep time="3.00"/>
    <timestep time="3.50"/>
    <timestep time="4.00"/>
    <timestep time="4.50"/>
    <timestep time="5.00"/>
    <timestep time="5.50"/>
    <timestep time="6.00"/>
    <timestep time="6.50"/>
    <timestep time="7.00"/>
    <timestep time="7.50"/>
    <timestep time="8.00"/>
    <timestep time="8.50"/>
    <timestep time="9.00"/>
    <timestep time="9.50"/>
    <timestep time="10.00">
        <vehicle id="background.0" x="5.10" y="-1.60" angle="90.00" type="human" speed="13.17" pos="5.10" lane="e0_0" slope="0.00"/>
    </timestep>
    <timestep time="10.50">
        <vehicle id="background.0" x="11.66" y="-1.60" angle="90.00" type="human" speed="13.11" pos="11.66" lane="e0_0" slope="0.00"/>
    </timestep>
    <timestep time="11.00">
        <vehicle id="background.0" x="18.12" y="-1.60" angle="90.00" type="human" speed="12.92" pos="18.12" lane="e0_0" slope="0.00"/>
    </timestep>
    <timestep time="11.50">
        <vehicle id="background.0" x="24.55" y="-1.60" angle="90.00" type="human" speed="12.87" pos="24.55" lane="e0_0" slope="0.00"/>
    </timestep>
    <timestep time="12.00">
        <vehicle id="background.0" x="31.11" y="-1.60" angle="90.00" type="human" speed="13.12" pos="31.11" lane="e0_0" slope="0.00"/>
    </timestep>
    <timestep time="12.50">
        <vehicle id="background.0" x="37.67" y="-1.60" angle="90.00" type="human" speed="13.11" pos="37.67" lane="e0_0" slope="0.00"/>
    </timestep>
    <timestep time="13.00">
        <vehicle id="background.0" x="44.21" y="-1.60" angle="90.00" type="human" speed="13.10" pos="44.21" lane="e0_0" slope="0.00"/>
    </timestep>
    <timestep time="13.50">
        <vehicle id="background.0" x="50.74" y="-1.60" angle="90.00" type="human" speed="13.05" pos="50.74" lane="e0_0" slope="0.00"/>
        <vehicle id="background.1" x="5.10" y="-1.60" angle="90.00" type="human" speed="13.89" pos="5.10" lane="e0_0" slope="0.00"/>
    </timestep>
    <timestep time="14.00">
        <vehicle id="background.0" x="57.28" y="-1.60" angle="90.00" type="human" speed="13.09" pos="57.28" lane="e0_0" slope="0.00"/>
        <vehicle id="background.1" x="11.96" y="-1.60" angle="90.00" type="human" speed="13.73" pos="11.96" lane="e0_0" slope="0.00"/>
    </timestep>
    <timestep time="14.50">
        <vehicle id="background.0" x="63.67" y="-1.60" angle="90.00" type="human" speed="12.77" pos="63.67" lane="e0_0" slope="0.00"/>
        <vehicle id="background.1" x="18.69" y="-1.60" angle="90.00" type="human" speed="13.46" pos="18.69" lane="e0_0" slope="0.00"/>
    </timestep>
    <timestep time="15.00">
        <vehicle id="background.0" x="70.23" y="-1.60" angle="90.00" type="human" speed="13.13" pos="70.23" lane="e0_0" slope="0.00"/>
        <vehicle id="background.1" x="25.47" y="-1.60" angle="90.00" type="human" speed="13.56" pos="25.47" lane="e0_0" slope="0.00"/>
    </timestep>
    <timestep time="15.50">
        <vehicle id="background.0" x="76.81" y="-1.60" angle="90.00" type="human" speed="13.15" pos="76.81" lane="e0_0" slope="0.00"/>
        <vehicle id="background.1" x="32.28" y="-1.60" angle="90.00" type="human" speed="13.62" pos="32.28" lane="e0_0" slope="0.00"/>
    </timestep>
    <timestep time="16.00">
        <vehicle id="background.0" x="83.24" y="-1.60" angle="90.00" type="human" speed="12.87" pos="83.24" lane="e0_0" slope="0.00"/>
        <vehicle id="background.1" x="39.22" y="-1.60" angle="90.00" type="human" speed="13.88" pos="39.22" lane="e0_0" slope="0.00"/>
    </timestep>
    <timestep time="16.50">
        <vehicle id="background.0" x="89.68" y="-1.60" angle="90.00" type="human" speed="12.87" pos="89.68" lane="e0_0" slope="0.00"/>
        <vehicle id="background.1" x="45.98" y="-1.60" angle="90.00" type="human" speed="13.52" pos="45.98" lane="e0_0" slope="0.00"/>
    </timestep>
    <timestep time="17.00">
        <vehicle id="background.0" x="96.20" y="-1.60" angle="90.00" type="human" speed="13.05" pos="96.20" lane="e0_0" slope="0.00"/>
        <vehicle id="background.1" x="52.83" y="-1.60" angle="90.00" type="human" speed="13.69" pos="52.83" lane="e0_0" slope="0.00"/>
    </timestep>
    <timestep time="17.50">
        <vehicle id="background.0" x="102.75" y="-1.60" angle="90.00" type="human" speed="13.10" pos="102.75" lane="e0_0" slope="0.00"/>
        <vehicle id="background.1" x="59.57" y="-1.60" angle="90.00" type="human" speed="13.49" pos="59.57" lane="e0_0" slope="0.00"/>
        <vehicle id="background.2" x="5.10" y="-1.60" angle="90.00" type="human" speed="13.89" pos="5.10" lane="e0_0" slope="0.00"/>
    </timestep>
    <timestep time="18.00">
        <vehicle id="background.0" x="109.33" y="-1.60" angle="90.00" type="human" speed="13.17" pos="109.33" lane="e0_0" slope="0.00"/>
        <vehicle id="background.1" x="66.45" y="-1.60" angle="90.00" type="human" speed="13.76" pos="66.45" lane="e0_0" slope="0.00"/>
        <vehicle id="background.2" x="11.93" y="-1.60" angle="90.00" type="human" speed="13.66" pos="11.93" lane="e0_0" slope="0.00"/>
    </timestep>
    <timestep time="18.50">
        <vehicle id="background.0" x="115.91" y="-1.60" angle="90.00" type="human" speed="13.14" pos="115.91" lane="e0_0" slope="0.00"/>
        <vehicle id="background.1" x="73.16" y="-1.60" angle="90.00" type="human" speed="13.41" pos="73.16" lane="e0_0" slope="0.00"/>
        <vehicle id="background.2" x="18.66" y="-1.60" angle="90.00" type="human" speed="13.46" pos="18.66" lane="e0_0" slope="0.00"/>
        <vehicle id="background.3" x="5.10" y="-1.60" angle="90.00" type="human" speed="11.34" pos="5.10" lane="e0_0" slope="0.00"/>
    </timestep>
    <timestep time="19.00">
        <vehicle id="background.0" x="122.35" y="-1.60" angle="90.00" type="human" speed="12.89" pos="122.35" lane="e0_0" slope="0.00"/>
        <vehicle id="background.1" x="80.05" y="-1.60" angle="90.00" type="human" speed="13.78" pos="80.05" lane="e0_0" slope="0.00"/>
        <vehicle id="background.2" x="25.44" y="-1.60" angle="90.00" type="human" speed="13.57" pos="25.44" lane="e0_0" slope="0.00"/>
        <vehicle id="background.3" x="10.67" y="-1.60" angle="90.00" type="human" speed="11.14" pos="10.67" lane="e0_0" slope="0.00"/>
    </timestep>
    <timestep time="19.50">
        <vehicle id="background.0" x="128.79" y="-1.60" angle="90.00" type="human" speed="12.88" pos="128.79" lane="e0_0" slope="0.00"/>
        <vehicle id="background.1" x="86.92" y="-1.60" angle="90.00" type="human" speed="13.73" pos="86.92" lane="e0_0" slope="0.00"/>
        <vehicle id="background.2" x="32.34" y="-1.60" angle="90.00" type="human" speed="13.81" pos="32.34" lane="e0_0" slope="0.00"/>
        <vehicle id="background.3" x="16.54" y="-1.60" angle="90.00" type="human" speed="11.74" pos="16.54" lane="e0_0" slope="0.00"/>
    </timestep>
    <timestep time="20.00">
        <vehicle id="background.0" x="135.28" y="-1.60" angle="90.00" type="human" speed="12.96" pos="135.28" lane="e0_0" slope="0.00"/>
        <vehicle id="background.1" x="93.65" y="-1.60" angle="90.00" type="human" speed="13.47" pos="93.65" lane="e0_0" slope="0.00"/>
        <vehicle id="background.2" x="39.12" y="-1.60" angle="90.00" type="human" speed="13.56" pos="39.12" lane="e0_0" slope="0.00"/>
        <vehicle id="background.3" x="22.45" y="-1.60" angle="90.00" type="human" speed="11.82" pos="22.45" lane="e0_0" slope="0.00"/>
    </timestep>
    <timestep time="20.50">
        <vehicle id="background.0" x="141.71" y="-1.60" angle="90.00" type="human" speed="12.86" pos="141.71" lane="e0_0" slope="0.00"/>
        <vehicle id="background.1" x="100.35" y="-1.60" angle="90.00" type="human" speed="13.40" pos="100.35" lane="e0_0" slope="0.00"/>
        <vehicle id="background.2" x="45.97" y="-1.60" angle="90.00" type="human" speed="13.69" pos="45.97" lane="e0_0" slope="0.00"/>
        <vehicle id="background.3" x="28.47" y="-1.60" angle="90.00" type="human" speed="12.05" pos="28.47" lane="e0_0" slope="0.00"/>
    </timestep>
    <timestep time="21.00">
        <vehicle id="background.0" x="148.07" y="-1.60" angle="90.00" type="human" speed="12.74" pos="148.07" lane="e0_0" slope="0.00"/>
        <vehicle id="background.1" x="107.06" y="-1.60" angle="90.00" type="human" speed="13.41" pos="107.06" lane="e0_0" slope="0.00"/>
        <vehicle id="background.2" x="52.77" y="-1.60" angle="90.00" type="human" speed="13.61" pos="52.77" lane="e0_0" slope="0.00"/>
        <vehicle id="background.3" x="34.48" y="-1.60" angle="90.00" type="human" speed="12.02" pos="34.48" lane="e0_0" slope="0.00"/>
    </timestep>
    <timestep time="21.50">
        <vehicle id="background.0" x="154.55" y="-1.60" angle="90.00" type="human" speed="12.96" pos="154.55" lane="e0_0" slope="0.00"/>
        <vehicle id="background.1" x="113.84" y="-1.60" angle="90.00" type="human" speed="13.56" pos="113.84" lane="e0_0" slope="0.00"/>
        <vehicle id="background.2" x="59.68" y="-1.60" angle="90.00" type="human" speed="13.82" pos="59.68" lane="e0_0" slope="0.00"/>
        <vehicle id="background.3" x="40.58" y="-1.60" angle="90.00" type="human" speed="12.20" pos="40.58" lane="e0_0" slope="0.00"/>
    </timestep>
    <timestep time="22.00">
        <vehicle id="background.0" x="161.08" y="-1.60" angle="90.00" type="human" speed="13.06" pos="161.08" lane="e0_0" slope="0.00"/>
        <vehicle id="background.1" x="120.56" y="-1.60" angle="90.00" type="human" speed="13.44" pos="120.56" lane="e0_0" slope="0.00"/>
        <vehicle id="background.2" x="66.58" y="-1.60" angle="90.00" type="human" speed="13.79" pos="66.58" lane="e0_0" slope="0.00"/>
        <vehicle id="background.3" x="46.62" y="-1.60" angle="90.00" type="human" speed="12.09" pos="46.62" lane="e0_0" slope="0.00"/>
    </timestep>
    <timestep time="22.50">
        <vehicle id="background.0" x="167.47" y="-1.60" angle="90.00" type="human" speed="12.77" pos="167.47" lane="e0_0" slope="0.00"/>
        <vehicle id="background.1" x="127.44" y="-1.60" angle="90.00" type="human" speed="13.76" pos="127.44" lane="e0_0" slope="0.00"/>
        <vehicle id="background.2" x="73.44" y="-1.60" angle="90.00" type="human" speed="13.72" pos="73.44" lane="e0_0" slope="0.00"/>
        <vehicle id="background.3" x="52.74" y="-1.60" angle="90.00" type="human" speed="12.24" pos="52.74" lane="e0_0" slope="0.00"/>
    </timestep>
    <timestep time="23.00">
        <vehicle id="background.0" x="173.95" y="-1.60" angle="90.00" type="human" speed="12.96" pos="173.95" lane="e0_0" slope="0.00"/>
        <vehicle id="background.1" x="134.24" y="-1.60" angle="90.00" type="human" speed="13.62" pos="134.24" lane="e0_0" slope="0.00"/>
        <vehicle id="background.2" x="80.28" y="-1.60" angle="90.00" type="human" speed="13.67" pos="80.28" lane="e0_0" slope="0.00"/>
        <vehicle id="background.3" x="58.74" y="-1.60" angle="90.00" type="human" speed="12.00" pos="58.74" lane="e0_0" slope="0.00"/>
    </timestep>
    <timestep time="23.50">
        <vehicle id="background.0" x="180.33" y="-1.60" angle="90.00" type="human" speed="12.76" pos="180.33" lane="e0_0" slope="0.00"/>
        <vehicle id="background.1" x="141.03" y="-1.60" angle="90.00" type="human" speed="13.57" pos="141.03" lane="e0_0" slope="0.00"/>
        <vehicle id="background.2" x="87.18" y="-1.60" angle="90.00" type="human" speed="13.81" pos="87.18" lane="e0_0" slope="0.00"/>
        <vehicle id="background.3" x="64.62" y="-1.60" angle="90.00" type="human" speed="11.75" pos="64.62" lane="e0_0" slope="0.00"/>
    </timestep>
    <timestep time="24.00">
        <vehicle id="background.0" x="186.81" y="-1.60" angle="90.00" type="human" speed="12.97" pos="186.81" lane="e0_0" slope="0.00"/>
        <vehicle id="background.1" x="147.75" y="-1.60" angle="90.00" type="human" speed="13.44" pos="147.75" lane="e0_0" slope="0.00"/>
        <vehicle id="background.2" x="93.91" y="-1.60" angle="90.00" type="human" speed="13.45" pos="93.91" lane="e0_0" slope="0.00"/>
        <vehicle id="background.3" x="70.51" y="-1.60" angle="90.00" type="human" speed="11.78" pos="70.51" lane="e0_0" slope="0.00"/>
    </timestep>
    <timestep time="24.50">
        <vehicle id="background.0" x="193.16" y="-1.60" angle="90.00" type="human" speed="12.69" pos="193.16" lane="e0_0" slope="0.00"/>
        <vehicle id="background.1" x="154.56" y="-1.60" angle="90.00" type="human" speed="13.63" pos="154.56" lane="e0_0" slope="0.00"/>
        <vehicle id="background.2" x="100.65" y="-1.60" angle="90.00" type="human" speed="13.49" pos="100.65" lane="e0_0" slope="0.00"/>
        <vehicle id="background.3" x="76.60" y="-1.60" angle="90.00" type="human" speed="12.19" pos="76.60" lane="e0_0" slope="0.00"/>
    </timestep>
    <timestep time="25.00">
        <vehicle id="background.0" x="199.72" y="-1.60" angle="90.00" type="human" speed="13.11" pos="199.72" lane="e0_0" slope="0.00"/>
        <vehicle id="background.1" x="161.46" y="-1.60" angle="90.00" type="human" speed="13.80" pos="161.46" lane="e0_0" slope="0.00"/>
        <vehicle id="background.2" x="107.36" y="-1.60" angle="90.00" type="human" speed="13.42" pos="107.36" lane="e0_0" slope="0.00"/>
        <vehicle id="background.3" x="82.49" y="-1.60" angle="90.00" type="human" speed="11.76" pos="82.49" lane="e0_0" slope="0.00"/>
    </timestep>
    <timestep time="25.50">
        <vehicle id="background.0" x="206.26" y="-1.60" angle="90.00" type="human" speed="13.10" pos="206.26" lane="e0_0" slope="0.00"/>
        <vehicle id="background.1" x="168.30" y="-1.60" angle="90.00" type="human" speed="13.68" pos="168.30" lane="e0_0" slope="0.00"/>
        <vehicle id="background.2" x="114.19" y="-1.60" angle="90.00" type="human" speed="13.65" pos="114.19" lane="e0_0" slope="0.00"/>
        <vehicle id="background.3" x="88.39" y="-1.60" angle="90.00" type="human" speed="11.81" pos="88.39" lane="e0_0" slope="0.00"/>
    </timestep>
    <timestep time="26.00">
        <vehicle id="background.0" x="212.70" y="-1.60" angle="90.00" type="human" speed="12.87" pos="212.70" lane="e0_0" slope="0.00"/>
        <vehicle id="background.1" x="175.08" y="-1.60" angle="90.00" type="human" speed="13.55" pos="175.08" lane="e0_0" slope="0.00"/>
        <vehicle id="background.2" x="121.07" y="-1.60" angle="90.00" type="human" speed="13.76" pos="121.07" lane="e0_0" slope="0.00"/>
        <vehicle id="background.3" x="94.35" y="-1.60" angle="90.00" type="human" speed="11.93" pos="94.35" lane="e0_0" slope="0.00"/>
    </timestep>
    <timestep time="26.50">
        <vehicle id="background.0" x="219.05" y="-1.60" angle="90.00" type="human" speed="12.71" pos="219.05" lane="e0_0" slope="0.00"/>
        <vehicle id="background.1" x="181.96" y="-1.60" angle="90.00" type="human" speed="13.75" pos="181.96" lane="e0_0" slope="0.00"/>
        <vehicle id="background.2" x="127.78" y="-1.60" angle="90.00" type="human" speed="13.42" pos="127.78" lane="e0_0" slope="0.00"/>
        <vehicle id="background.3" x="100.25" y="-1.60" angle="90.00" type="human" speed="11.79" pos="100.25" lane="e0_0" slope="0.00"/>
    </timestep>
    <timestep time="27.00">
        <vehicle id="background.0" x="225.60" y="-1.60" angle="90.00" type="human" speed="13.10" pos="225.60" lane="e0_0" slope="0.00"/>
        <vehicle id="background.1" x="188.85" y="-1.60" angle="90.00" type="human" speed="13.79" pos="188.85" lane="e0_0" slope="0.00"/>
        <vehicle id="background.2" x="134.52" y="-1.60" angle="90.00" type="human" speed="13.49" pos="134.52" lane="e0_0" slope="0.00"/>
        <vehicle id="background.3" x="106.27" y="-1.60" angle="90.00" type="human" speed="12.04" pos="106.27" lane="e0_0" slope="0.00"/>
    </timestep>
    <timestep time="27.50">
        <vehicle id="background.0" x="231.96" y="-1.60" angle="90.00" type="human" speed="12.71" pos="231.96" lane="e0_0" slope="0.00"/>
        <vehicle id="background.1" x="195.55" y="-1.60" angle="90.00" type="human" speed="13.39" pos="195.55" lane="e0_0" slope="0.00"/>
        <vehicle id="background.2" x="141.34" y="-1.60" angle="90.00" type="human" speed="13.62" pos="141.34" lane="e0_0" slope="0.00"/>
        <vehicle id="background.3" x="112.20" y="-1.60" angle="90.00" type="human" speed="11.87" pos="112.20" lane="e0_0" slope="0.00"/>
    </timestep>
    <timestep time="28.00">
        <vehicle id="background.0" x="238.47" y="-1.60" angle="90.00" type="human" speed="13.02" pos="238.47" lane="e0_0" slope="0.00"/>
        <vehicle id="background.1" x="202.38" y="-1.60" angle="90.00" type="human" speed="13.67" pos="202.38" lane="e0_0" slope="0.00"/>
        <vehicle id="background.2" x="148.13" y="-1.60" angle="90.00" type="human" speed="13.59" pos="148.13" lane="e0_0" slope="0.00"/>
        <vehicle id="background.3" x="118.18" y="-1.60" angle="90.00" type="human" speed="11.96" pos="118.18" lane="e0_0" slope="0.00"/>
    </timestep>
    <timestep time="28.50">
        <vehicle id="background.0" x="244.86" y="-1.60" angle="90.00" type="human" speed="12.78" pos="244.86" lane="e0_0" slope="0.00"/>
        <vehicle id="background.1" x="209.22" y="-1.60" angle="90.00" type="human" speed="13.68" pos="209.22" lane="e0_0" slope="0.00"/>
        <vehicle id="background.2" x="154.98" y="-1.60" angle="90.00" type="human" speed="13.70" pos="154.98" lane="e0_0" slope="0.00"/>
        <vehicle id="background.3" x="124.12" y="-1.60" angle="90.00" type="human" speed="11.88" pos="124.12" lane="e0_0" slope="0.00"/>
    </timestep>
    <timestep time="29.00">
        <vehicle id="background.0" x="251.31" y="-1.60" angle="90.00" type="human" speed="12.89" pos="251.31" lane="e0_0" slope="0.00"/>
        <vehicle id="background.1" x="216.07" y="-1.60" angle="90.00" type="human" speed="13.69" pos="216.07" lane="e0_0" slope="0.00"/>
        <vehicle id="background.2" x="161.91" y="-1.60" angle="90.00" type="human" speed="13.86" pos="161.91" lane="e0_0" slope="0.00"/>
        <vehicle id="background.3" x="130.07" y="-1.60" angle="90.00" type="human" speed="11.90" pos="130.07" lane="e0_0" slope="0.00"/>
    </timestep>
    <timestep time="29.50">
        <vehicle id="background.0" x="257.78" y="-1.60" angle="90.00" type="human" speed="12.95" pos="257.78" lane="e0_0" slope="0.00"/>
        <vehicle id="background.1" x="222.84" y="-1.60" angle="90.00" type="human" speed="13.54" pos="222.84" lane="e0_0" slope="0.00"/>
        <vehicle id="background.2" x="168.67" y="-1.60" angle="90.00" type="human" speed="13.50" pos="168.67" lane="e0_0" slope="0.00"/>
        <vehicle id="background.3" x="136.04" y="-1.60" angle="90.00" type="human" speed="11.94" pos="136.04" lane="e0_0" slope="0.00"/>
    </timestep>
    <timestep time="30.00">
        <vehicle id="background.0" x="264.37" y="-1.60" angle="90.00" type="human" speed="13.17" pos="264.37" lane="e0_0" slope="0.00"/>
        <vehicle id="background.1" x="229.65" y="-1.60" angle="90.00" type="human" speed="13.62" pos="229.65" lane="e0_0" slope="0.00"/>
        <vehicle id="background.2" x="175.40" y="-1.60" angle="90.00" type="human" speed="13.48" pos="175.40" lane="e0_0" slope="0.00"/>
        <vehicle id="background.3" x="142.11" y="-1.60" angle="90.00" type="human" speed="12.14" pos="142.11" lane="e0_0" slope="0.00"/>
    </timestep>
    <timestep time="30.50">
        <vehicle id="background.0" x="270.75" y="-1.60" angle="90.00" type="human" speed="12.77" pos="270.75" lane="e0_0" slope="0.00"/>
        <vehicle id="background.1" x="236.54" y="-1.60" angle="90.00" type="human" speed="13.79" pos="236.54" lane="e0_0" slope="0.00"/>
        <vehicle id="background.2" x="182.12" y="-1.60" angle="90.00" type="human" speed="13.44" pos="182.12" lane="e0_0" slope="0.00"/>
        <vehicle id="background.3" x="148.03" y="-1.60" angle="90.00" type="human" speed="11.84" pos="148.03" lane="e0_0" slope="0.00"/>
    </timestep>
    <timestep time="31.00">
        <vehicle id="background.0" x="277.21" y="-1.60" angle="90.00" type="human" speed="12.91" pos="277.21" lane="e0_0" slope="0.00"/>
        <vehicle id="background.1" x="243.41" y="-1.60" angle="90.00" type="human" speed="13.74" pos="243.41" lane="e0_0" slope="0.00"/>
        <vehicle id="background.2" x="188.87" y="-1.60" angle="90.00" type="human" speed="13.49" pos="188.87" lane="e0_0" slope="0.00"/>
        <vehicle id="background.3" x="153.99" y="-1.60" angle="90.00" type="human" speed="11.91" pos="153.99" lane="e0_0" slope="0.00"/>
    </timestep>
    <timestep time="31.50">
        <vehicle id="background.0" x="283.69" y="-1.60" angle="90.00" type="human" speed="12.97" pos="283.69" lane="e0_0" slope="0.00"/>
        <vehicle id="background.1" x="250.28" y="-1.60" angle="90.00" type="human" speed="13.74" pos="250.28" lane="e0_0" slope="0.00"/>
        <vehicle id="background.2" x="195.59" y="-1.60" angle="90.00" type="human" speed="13.43" pos="195.59" lane="e0_0" slope="0.00"/>
        <vehicle id="background.3" x="160.07" y="-1.60" angle="90.00" type="human" speed="12.17" pos="160.07" lane="e0_0" slope="0.00"/>
    </timestep>
    <timestep time="32.00">
        <vehicle id="background.0" x="290.11" y="-1.60" angle="90.00" type="human" speed="12.82" pos="290.11" lane="e0_0" slope="0.00"/>
        <vehicle id="background.1" x="257.13" y="-1.60" angle="90.00" type="human" speed="13.69" pos="257.13" lane="e0_0" slope="0.00"/>
        <vehicle id="background.2" x="202.52" y="-1.60" angle="90.00" type="human" speed="13.86" pos="202.52" lane="e0_0" slope="0.00"/>
        <vehicle id="background.3" x="166.11" y="-1.60" angle="90.00" type="human" speed="12.08" pos="166.11" lane="e0_0" slope="0.00"/>
    </timestep>
    <timestep time="32.50">
        <vehicle id="background.0" x="296.45" y="-1.60" angle="90.00" type="human" speed="12.69" pos="296.45" lane="e0_0" slope="0.00"/>
        <vehicle id="background.1" x="264.01" y="-1.60" angle="90.00" type="human" speed="13.77" pos="264.01" lane="e0_0" slope="0.00"/>
        <vehicle id="background.2" x="209.28" y="-1.60" angle="90.00" type="human" speed="13.52" pos="209.28" lane="e0_0" slope="0.00"/>
        <vehicle id="background.3" x="172.09" y="-1.60" angle="90.00" type="human" speed="11.95" pos="172.09" lane="e0_0" slope="0.00"/>
        <vehicle id="background.4" x="5.10" y="-1.60" angle="90.00" type="human" speed="12.93" pos="5.10" lane="e0_0" slope="0.00"/>
    </timestep>
    <timestep time="33.00">
        <vehicle id="background.0" x="302.83" y="-1.60" angle="90.00" type="human" speed="12.96" pos="2.83" lane="e1_0" slope="0.00"/>
        <vehicle id="background.1" x="270.90" y="-1.60" angle="90.00" type="human" speed="13.77" pos="270.90" lane="e0_0" slope="0.00"/>
        <vehicle id="background.2" x="215.97" y="-1.60" angle="90.00" type="human" speed="13.39" pos="215.97" lane="e0_0" slope="0.00"/>
        <vehicle id="background.3" x="178.02" y="-1.60" angle="90.00" type="human" speed="11.87" pos="178.02" lane="e0_0" slope="0.00"/>
        <vehicle id="background.4" x="11.42" y="-1.60" angle="90.00" type="human" speed="12.64" pos="11.42" lane="e0_0" slope="0.00"/>
    </timestep>
    <timestep time="33.50">
        <vehicle id="background.0" x="309.21" y="-1.60" angle="90.00" type="human" speed="12.75" pos="9.21" lane="e1_0" slope="0.00"/>
        <vehicle id="background.1" x="277.66" y="-1.60" angle="90.00" type="human" speed="13.53" pos="277.66" lane="e0_0" slope="0.00"/>
        <vehicle id="background.2" x="222.69" y="-1.60" angle="90.00" type="human" speed="13.44" pos="222.69" lane="e0_0" slope="0.00"/>
        <vehicle id="background.3" x="183.96" y="-1.60" angle="90.00" type="human" speed="11.89" pos="183.96" lane="e0_0" slope="0.00"/>
        <vehicle id="background.4" x="17.66" y="-1.60" angle="90.00" type="human" speed="12.47" pos="17.66" lane="e0_0" slope="0.00"/>
    </timestep>
    <timestep time="34.00">
        <vehicle id="background.0" x="315.68" y="-1.60" angle="90.00" type="human" speed="12.96" pos="15.68" lane="e1_0" slope="0.00"/>
        <vehicle id="background.1" x="284.58" y="-1.60" angle="90.00" type="human" speed="13.84" pos="284.58" lane="e0_0" slope="0.00"/>
        <vehicle id="background.2" x="229.56" y="-1.60" angle="90.00" type="human" speed="13.74" pos="229.56" lane="e0_0" slope="0.00"/>
        <vehicle id="background.3" x="189.85" y="-1.60" angle="90.00" type="human" speed="11.77" pos="189.85" lane="e0_0" slope="0.00"/>
        <vehicle id="background.4" x="23.94" y="-1.60" angle="90.00" type="human" speed="12.56" pos="23.94" lane="e0_0" slope="0.00"/>
    </timestep>
    <timestep time="34.50">
        <vehicle id="background.0" x="322.24" y="-1.60" angle="90.00" type="human" speed="13.12" pos="22.24" lane="e1_0" slope="0.00"/>
        <vehicle id="background.1" x="291.40" y="-1.60" angle="90.00" type="human" speed="13.64" pos="291.40" lane="e0_0" slope="0.00"/>
        <vehicle id="background.2" x="236.27" y="-1.60" angle="90.00" type="human" speed="13.42" pos="236.27" lane="e0_0" slope="0.00"/>
        <vehicle id="background.3" x="195.74" y="-1.60" angle="90.00" type="human" speed="11.79" pos="195.74" lane="e0_0" slope="0.00"/>
        <vehicle id="background.4" x="30.37" y="-1.60" angle="90.00" type="human" speed="12.87" pos="30.37" lane="e0_0" slope="0.00"/>
    </timestep>
    <timestep time="35.00">
        <vehicle id="background.0" x="328.82" y="-1.60" angle="90.00" type="human" speed="13.16" pos="28.82" lane="e1_0" slope="0.00"/>
        <vehicle id="background.1" x="298.30" y="-1.60" angle="90.00" type="human" speed="13.79" pos="298.30" lane="e0_0" slope="0.00"/>
        <vehicle id="background.2" x="242.99" y="-1.60" angle="90.00" type="human" speed="13.43" pos="242.99" lane="e0_0" slope="0.00"/>
        <vehicle id="background.3" x="201.71" y="-1.60" angle="90.00" type="human" speed="11.94" pos="201.71" lane="e0_0" slope="0.00"/>
        <vehicle id="background.4" x="36.77" y="-1.60" angle="90.00" type="human" speed="12.80" pos="36.77" lane="e0_0" slope="0.00"/>
    </timestep>
    <timestep time="35.50">
        <vehicle id="background.0" x="335.22" y="-1.60" angle="90.00" type="human" speed="12.80" pos="35.22" lane="e1_0" slope="0.00"/>
        <vehicle id="background.1" x="304.90" y="-1.60" angle="90.00" type="human" speed="13.41" pos="4.90" lane="e1_0" slope="0.00"/>
        <vehicle id="background.2" x="249.83" y="-1.60" angle="90.00" type="human" speed="13.68" pos="249.83" lane="e0_0" slope="0.00"/>
        <vehicle id="background.3" x="207.58" y="-1.60" angle="90.00" type="human" speed="11.74" pos="207.58" lane="e0_0" slope="0.00"/>
        <vehicle id="background.4" x="43.11" y="-1.60" angle="90.00" type="human" speed="12.67" pos="43.11" lane="e0_0" slope="0.00"/>
    </timestep>
    <timestep time="36.00">
        <vehicle id="background.0" x="341.65" y="-1.60" angle="90.00" type="human" speed="12.86" pos="41.65" lane="e1_0" slope="0.00"/>
        <vehicle id="background.1" x="311.75" y="-1.60" angle="90.00" type="human" speed="13.71" pos="11.75" lane="e1_0" slope="0.00"/>
        <vehicle id="background.2" x="256.76" y="-1.60" angle="90.00" type="human" speed="13.88" pos="256.76" lane="e0_0" slope="0.00"/>
        <vehicle id="background.3" x="213.47" y="-1.60" angle="90.00" type="human" speed="11.77" pos="213.47" lane="e0_0" slope="0.00"/>
        <vehicle id="background.4" x="49.45" y="-1.60" angle="90.00" type="human" speed="12.69" pos="49.45" lane="e0_0" slope="0.00"/>
    </timestep>
    <timestep time="36.50">
        <vehicle id="background.0" x="348.19" y="-1.60" angle="90.00" type="human" speed="13.08" pos="48.19" lane="e1_0" slope="0.00"/>
        <vehicle id="background.1" x="318.61" y="-1.60" angle="90.00" type="human" speed="13.71" pos="18.61" lane="e1_0" slope="0.00"/>
        <vehicle id="background.2" x="263.49" y="-1.60" angle="90.00" type="human" speed="13.44" pos="263.49" lane="e0_0" slope="0.00"/>
        <vehicle id="background.3" x="219.52" y="-1.60" angle="90.00" type="human" speed="12.09" pos="219.52" lane="e0_0" slope="0.00"/>
        <vehicle id="background.4" x="55.85" y="-1.60" angle="90.00" type="human" speed="12.79" pos="55.85" lane="e0_0" slope="0.00"/>
        <vehicle id="background.5" x="5.10" y="-1.60" angle="90.00" type="human" speed="13.89" pos="5.10" lane="e0_0" slope="0.00"/>
    </timestep>
    <timestep time="37.00">
        <vehicle id="background.1" x="325.40" y="-1.60" angle="90.00" type="human" speed="13.59" pos="25.40" lane="e1_0" slope="0.00"/>
        <vehicle id="background.2" x="270.41" y="-1.60" angle="90.00" type="human" speed="13.86" pos="270.41" lane="e0_0" slope="0.00"/>
        <vehicle id="background.3" x="225.41" y="-1.60" angle="90.00" type="human" speed="11.79" pos="225.41" lane="e0_0" slope="0.00"/>