<?xml version="1.0" encoding="UTF-8"?>

<!-- generated on 2026-05-14 17:06:05 by Eclipse SUMO sumo Version 1.24.0
<sumoConfiguration xmlns:xsi="http://www.w3.org/2001/XMLSchema-instance" xsi:noNamespaceSchemaLocation="http://sumo.dlr.de/xsd/sumoConfiguration.xsd">

    <input>
        <net-file value="scenarios/simple_arterial/simple_arterial.net.xml"/>
        <route-files value="scenarios/simple_arterial/simple_arterial_glosa.rou.xml"/>
        <additional-files value="scenarios/simple_arterial/simple_arterial.tls.xml"/>
    </input>

    <output>
        <fcd-output value="runs/fcd_expert_glosa/episode_00039_seed_81.fcd.xml"/>
    </output>

    <time>
        <begin value="0"/>
        <end value="900"/>
        <step-length value="0.5"/>
    </time>

    <report>
        <no-warnings value="true"/>
    </report>

    <traci_server>
        <remote-port value="37703"/>
    </traci_server>

    <random_number>
        <seed value="81"/>
    </random_number>

</sumoConfiguration>
-->

<fcd-export xmlns:xsi="http://www.w3.org/2001/XMLSchema-instance" xsi:noNamespaceSchemaLocation="http://sumo.dlr.de/xsd/fcd_file.xsd">
    <timestep time="0.00"/>
    <timestep time="0.50"/>
    <timestep time="1.00"/>
    <timestep time="1.50"/>
    <timestep time="2.00"/>
    <timestep time="2.50"/>
    <timestep time="3.00"/>
    <timestep time="3.50"/>
    <timestep time="4.00"/>
    <timestep time="4.50"/>
    <timestep time="5.00"/>
    <timestep time="5.50">
        <vehicle id="background.0" x="5.10" y="-1.60" angle="90.00" type="human" speed="10.84" pos="5.10" lane="e0_0" slope="0.00"/>
    </timestep>
    <timestep time="6.00">
        <vehicle id="background.0" x="10.45" y="-1.60" angle="90.00" type="human" speed="10.70" pos="10.45" lane="e0_0" slope="0.00"/>
    </timestep>
    <timestep time="6.50">
        <vehicle id="background.0" x="15.85" y="-1.60" angle="90.00" type="human" speed="10.79" pos="15.85" lane="e0_0" slope="0.00"/>
    </timestep>
    <timestep time="7.00">
        <vehicle id="background.0" x="21.11" y="-1.60" angle="90.00" type="human" speed="10.52" pos="21.11" lane="e0_0" slope="0.00"/>
    </timestep>
    <timestep time="7.50">
        <vehicle id="background.0" x="26.43" y="-1.60" angle="90.00" type="human" speed="10.64" pos="26.43" lane="e0_0" slope="0.00"/>
    </timestep>
    <timestep time="8.00">
        <vehicle id="background.0" x="31.69" y="-1.60" angle="90.00" type="human" speed="10.53" pos="31.69" lane="e0_0" slope="0.00"/>
    </timestep>
    <timestep time="8.50">
        <vehicle id="background.0" x="36.91" y="-1.60" angle="90.00" type="human" speed="10.45" pos="36.91" lane="e0_0" slope="0.00"/>
    </timestep>
    <timestep time="9.00">
        <vehicle id="background.0" x="42.14" y="-1.60" angle="90.00" type="human" speed="10.45" pos="42.14" lane="e0_0" slope="0.00"/>
    </timestep>
    <timestep time="9.50">
        <vehicle id="background.0" x="47.36" y="-1.60" angle="90.00" type="human" speed="10.45" pos="47.36" lane="e0_0" slope="0.00"/>
    </timestep>
    <timestep time="10.00">
        <vehicle id="background.0" x="52.66" y="-1.60" angle="90.00" type="human" speed="10.60" pos="52.66" lane="e0_0" slope="0.00"/>
    </timestep>
    <timestep time="10.50">
        <vehicle id="background.0" x="57.92" y="-1.60" angle="90.00" type="human" speed="10.51" pos="57.92" lane="e0_0" slope="0.00"/>
    </timestep>
    <timestep time="11.00">
        <vehicle id="background.0" x="63.10" y="-1.60" angle="90.00" type="human" speed="10.36" pos="63.10" lane="e0_0" slope="0.00"/>
    </timestep>
    <timestep time="11.50">
        <vehicle id="background.0" x="68.28" y="-1.60" angle="90.00" type="human" speed="10.36" pos="68.28" lane="e0_0" slope="0.00"/>
    </timestep>
    <timestep time="12.00">
        <vehicle id="background.0" x="73.45" y="-1.60" angle="90.00" type="human" speed="10.34" pos="73.45" lane="e0_0" slope="0.00"/>
    </timestep>
    <timestep time="12.50">
        <vehicle id="background.0" x="78.85" y="-1.60" angle="90.00" type="human" speed="10.81" pos="78.85" lane="e0_0" slope="0.00"/>
    </timestep>
    <timestep time="13.00">
        <vehicle id="background.0" x="84.06" y="-1.60" angle="90.00" type="human" speed="10.42" pos="84.06" lane="e0_0" slope="0.00"/>
    </timestep>
    <timestep time="13.50">
        <vehicle id="background.0" x="89.36" y="-1.60" angle="90.00" type="human" speed="10.59" pos="89.36" lane="e0_0" slope="0.00"/>
    </timestep>
    <timestep time="14.00">
        <vehicle id="background.0" x="94.73" y="-1.60" angle="90.00" type="human" speed="10.74" pos="94.73" lane="e0_0" slope="0.00"/>
    </timestep>
    <timestep time="14.50">
        <vehicle id="background.0" x="99.96" y="-1.60" angle="90.00" type="human" speed="10.47" pos="99.96" lane="e0_0" slope="0.00"/>
    </timestep>
    <timestep time="15.00">
        <vehicle id="background.0" x="105.35" y="-1.60" angle="90.00" type="human" speed="10.77" pos="105.35" lane="e0_0" slope="0.00"/>
    </timestep>
    <timestep time="15.50">
        <vehicle id="background.0" x="110.61" y="-1.60" angle="90.00" type="human" speed="10.52" pos="110.61" lane="e0_0" slope="0.00"/>
    </timestep>
    <timestep time="16.00">
        <vehicle id="background.0" x="115.87" y="-1.60" angle="90.00" type="human" speed="10.53" pos="115.87" lane="e0_0" slope="0.00"/>
    </timestep>
    <timestep time="16.50">
        <vehicle id="background.0" x="121.15" y="-1.60" angle="90.00" type="human" speed="10.56" pos="121.15" lane="e0_0" slope="0.00"/>
    </timestep>
    <timestep time="17.00">
        <vehicle id="background.0" x="126.42" y="-1.60" angle="90.00" type="human" speed="10.54" pos="126.42" lane="e0_0" slope="0.00"/>
    </timestep>
    <timestep time="17.50">
        <vehicle id="background.0" x="131.69" y="-1.60" angle="90.00" type="human" speed="10.54" pos="131.69" lane="e0_0" slope="0.00"/>
    </timestep>
    <timestep time="18.00">
        <vehicle id="background.0" x="136.95" y="-1.60" angle="90.00" type="human" speed="10.52" pos="136.95" lane="e0_0" slope="0.00"/>
    </timestep>
    <timestep time="18.50">
        <vehicle id="background.0" x="142.14" y="-1.60" angle="90.00" type="human" speed="10.39" pos="142.14" lane="e0_0" slope="0.00"/>
    </timestep>
    <timestep time="19.00">
        <vehicle id="background.0" x="147.31" y="-1.60" angle="90.00" type="human" speed="10.34" pos="147.31" lane="e0_0" slope="0.00"/>
    </timestep>
    <timestep time="19.50">
        <vehicle id="background.0" x="152.63" y="-1.60" angle="90.00" type="human" speed="10.63" pos="152.63" lane="e0_0" slope="0.00"/>
    </timestep>
    <timestep time="20.00">
        <vehicle id="background.0" x="157.97" y="-1.60" angle="90.00" type="human" speed="10.67" pos="157.97" lane="e0_0" slope="0.00"/>
    </timestep>
    <timestep time="20.50">
        <vehicle id="background.0" x="163.30" y="-1.60" angle="90.00" type="human" speed="10.66" pos="163.30" lane="e0_0" slope="0.00"/>
    </timestep>
    <timestep time="21.00">
        <vehicle id="background.0" x="168.51" y="-1.60" angle="90.00" type="human" speed="10.43" pos="168.51" lane="e0_0" slope="0.00"/>
    </timestep>
    <timestep time="21.50">
        <vehicle id="background.0" x="173.76" y="-1.60" angle="90.00" type="human" speed="10.49" pos="173.76" lane="e0_0" slope="0.00"/>
    </timestep>
    <timestep time="22.00">
        <vehicle id="background.0" x="179.01" y="-1.60" angle="90.00" type="human" speed="10.50" pos="179.01" lane="e0_0" slope="0.00"/>
    </timestep>
    <timestep time="22.50">
        <vehicle id="background.0" x="184.34" y="-1.60" angle="90.00" type="human" speed="10.66" pos="184.34" lane="e0_0" slope="0.00"/>
    </timestep>
    <timestep time="23.00">
        <vehicle id="background.0" x="189.63" y="-1.60" angle="90.00" type="human" speed="10.57" pos="189.63" lane="e0_0" slope="0.00"/>
    </timestep>
    <timestep time="23.50">
        <vehicle id="background.0" x="195.02" y="-1.60" angle="90.00" type="human" speed="10.79" pos="195.02" lane="e0_0" slope="0.00"/>
    </timestep>
    <timestep time="24.00">
        <vehicle id="background.0" x="200.42" y="-1.60" angle="90.00" type="human" speed="10.80" pos="200.42" lane="e0_0" slope="0.00"/>
    </timestep>
    <timestep time="24.50">
        <vehicle id="background.0" x="205.79" y="-1.60" angle="90.00" type="human" speed="10.74" pos="205.79" lane="e0_0" slope="0.00"/>
    </timestep>
    <timestep time="25.00">
        <vehicle id="background.0" x="211.19" y="-1.60" angle="90.00" type="human" speed="10.79" pos="211.19" lane="e0_0" slope="0.00"/>
    </timestep>
    <timestep time="25.50">
        <vehicle id="background.0" x="216.60" y="-1.60" angle="90.00" type="human" speed="10.81" pos="216.60" lane="e0_0" slope="0.00"/>
    </timestep>
    <timestep time="26.00">
        <vehicle id="background.0" x="221.80" y="-1.60" angle="90.00" type="human" speed="10.40" pos="221.80" lane="e0_0" slope="0.00"/>
    </timestep>
    <timestep time="26.50">
        <vehicle id="background.0" x="227.00" y="-1.60" angle="90.00" type="human" speed="10.40" pos="227.00" lane="e0_0" slope="0.00"/>
    </timestep>
    <timestep time="27.00">
        <vehicle id="background.0" x="232.27" y="-1.60" angle="90.00" type="human" speed="10.54" pos="232.27" lane="e0_0" slope="0.00"/>
    </timestep>
    <timestep time="27.50">
        <vehicle id="background.0" x="237.54" y="-1.60" angle="90.00" type="human" speed="10.54" pos="237.54" lane="e0_0" slope="0.00"/>
    </timestep>
    <timestep time="28.00">
        <vehicle id="background.0" x="242.94" y="-1.60" angle="90.00" type="human" speed="10.80" pos="242.94" lane="e0_0" slope="0.00"/>
    </timestep>
    <timestep time="28.50">
        <vehicle id="background.0" x="248.29" y="-1.60" angle="90.00" type="human" speed="10.70" pos="248.29" lane="e0_0" slope="0.00"/>
    </timestep>
    <timestep time="29.00">
        <vehicle id="background.0" x="253.62" y="-1.60" angle="90.00" type="human" speed="10.67" pos="253.62" lane="e0_0" slope="0.00"/>
    </timestep>
    <timestep time="29.50">
        <vehicle id="background.0" x="258.97" y="-1.60" angle="90.00" type="human" speed="10.70" pos="258.97" lane="e0_0" slope="0.00"/>
        <vehicle id="background.1" x="5.10" y="-1.60" angle="90.00" type="human" speed="13.18" pos="5.10" lane="e0_0" slope="0.00"/>
    </timestep>
    <timestep time="30.00">
        <vehicle id="background.0" x="264.30" y="-1.60" angle="90.00" type="human" speed="10.66" pos="264.30" lane="e0_0" slope="0.00"/>
        <vehicle id="background.1" x="11.45" y="-1.60" angle="90.00" type="human" speed="12.69" pos="11.45" lane="e0_0" slope="0.00"/>
    </timestep>
    <timestep time="30.50">
        <vehicle id="background.0" x="269.71" y="-1.60" angle="90.00" type="human" speed="10.83" pos="269.71" lane="e0_0" slope="0.00"/>
        <vehicle id="background.1" x="17.99" y="-1.60" angle="90.00" type="human" speed="13.09" pos="17.99" lane="e0_0" slope="0.00"/>
    </timestep>
    <timestep time="31.00">
        <vehicle id="background.0" x="275.02" y="-1.60" angle="90.00" type="human" speed="10.62" pos="275.02" lane="e0_0" slope="0.00"/>
        <vehicle id="background.1" x="24.48" y="-1.60" angle="90.00" type="human" speed="12.98" pos="24.48" lane="e0_0" slope="0.00"/>
    </timestep>
    <timestep time="31.50">
        <vehicle id="background.0" x="280.43" y="-1.60" angle="90.00" type="human" speed="10.81" pos="280.43" lane="e0_0" slope="0.00"/>
        <vehicle id="background.1" x="30.91" y="-1.60" angle="90.00" type="human" speed="12.87" pos="30.91" lane="e0_0" slope="0.00"/>
    </timestep>
    <timestep time="32.00">
        <vehicle id="background.0" x="285.68" y="-1.60" angle="90.00" type="human" speed="10.50" pos="285.68" lane="e0_0" slope="0.00"/>
        <vehicle id="background.1" x="37.35" y="-1.60" angle="90.00" type="human" speed="12.87" pos="37.35" lane="e0_0" slope="0.00"/>
    </timestep>
    <timestep time="32.50">
        <vehicle id="background.0" x="291.09" y="-1.60" angle="90.00" type="human" speed="10.82" pos="291.09" lane="e0_0" slope="0.00"/>
        <vehicle id="background.1" x="43.74" y="-1.60" angle="90.00" type="human" speed="12.79" pos="43.74" lane="e0_0" slope="0.00"/>
    </timestep>
    <timestep time="33.00">
        <vehicle id="background.0" x="296.41" y="-1.60" angle="90.00" type="human" speed="10.65" pos="296.41" lane="e0_0" slope="0.00"/>
        <vehicle id="background.1" x="50.25" y="-1.60" angle="90.00" type="human" speed="13.02" pos="50.25" lane="e0_0" slope="0.00"/>
    </timestep>
    <timestep time="33.50">
        <vehicle id="background.0" x="301.53" y="-1.60" angle="90.00" type="human" speed="10.43" pos="1.53" lane="e1_0" slope="0.00"/>
        <vehicle id="background.1" x="56.64" y="-1.60" angle="90.00" type="human" speed="12.78" pos="56.64" lane="e0_0" slope="0.00"/>
    </timestep>
    <timestep time="34.00">
        <vehicle id="background.0" x="306.88" y="-1.60" angle="90.00" type="human" speed="10.71" pos="6.88" lane="e1_0" slope="0.00"/>
        <vehicle id="background.1" x="63.00" y="-1.60" angle="90.00" type="human" speed="12.73" pos="63.00" lane="e0_0" slope="0.00"/>
    </timestep>
    <timestep time="34.50">
        <vehicle id="background.0" x="312.16" y="-1.60" angle="90.00" type="human" speed="10.56" pos="12.16" lane="e1_0" slope="0.00"/>
        <vehicle id="background.1" x="69.50" y="-1.60" angle="90.00" type="human" speed="12.99" pos="69.50" lane="e0_0" slope="0.00"/>
        <vehicle id="background.2" x="5.10" y="-1.60" angle="90.00" type="human" speed="13.89" pos="5.10" lane="e0_0" slope="0.00"/>
    </timestep>
    <timestep time="35.00">
        <vehicle id="background.0" x="317.41" y="-1.60" angle="90.00" type="human" speed="10.50" pos="17.41" lane="e1_0" slope="0.00"/>
        <vehicle id="background.1" x="76.01" y="-1.60" angle="90.00" type="human" speed="13.01" pos="76.01" lane="e0_0" slope="0.00"/>
        <vehicle id="background.2" x="12.01" y="-1.60" angle="90.00" type="human" speed="13.83" pos="12.01" lane="e0_0" slope="0.00"/>
    </timestep>
    <timestep time="35.50">
        <vehicle id="background.0" x="322.62" y="-1.60" angle="90.00" type="human" speed="10.42" pos="22.62" lane="e1_0" slope="0.00"/>
        <vehicle id="background.1" x="82.57" y="-1.60" angle="90.00" type="human" speed="13.13" pos="82.57" lane="e0_0" slope="0.00"/>
        <vehicle id="background.2" x="18.75" y="-1.60" angle="90.00" type="human" speed="13.47" pos="18.75" lane="e0_0" slope="0.00"/>
    </timestep>
    <timestep time="36.00">
        <vehicle id="background.0" x="327.87" y="-1.60" angle="90.00" type="human" speed="10.51" pos="27.87" lane="e1_0" slope="0.00"/>
        <vehicle id="background.1" x="89.11" y="-1.60" angle="90.00" type="human" speed="13.08" pos="89.11" lane="e0_0" slope="0.00"/>
        <vehicle id="background.2" x="25.66" y="-1.60" angle="90.00" type="human" speed="13.83" pos="25.66" lane="e0_0" slope="0.00"/>
    </timestep>
    <timestep time="36.50">
        <vehicle id="background.0" x="333.06" y="-1.60" angle="90.00" type="human" speed="10.38" pos="33.06" lane="e1_0" slope="0.00"/>
        <vehicle id="background.1" x="95.66" y="-1.60" angle="90.00" type="human" speed="13.09" pos="95.66" lane="e0_0" slope="0.00"/>
        <vehicle id="background.2" x="32.42" y="-1.60" angle="90.00" type="human" speed="13.51" pos="32.42" lane="e0_0" slope="0.00"/>
    </timestep>
    <timestep time="37.00">
        <vehicle id="background.0" x="338.29" y="-1.60" angle="90.00" type="human" speed="10.45" pos="38.29" lane="e1_0" slope="0.00"/>
        <vehicle id="background.1" x="102.01" y="-1.60" angle="90.00" type="human" speed="12.71" pos="102.01" lane="e0_0" slope="0.00"/>
        <vehicle id="background.2" x="39.23" y="-1.60" angle="90.00" type="human" speed="13.62" pos="39.23" lane="e0_0" slope="0.00"/>
    </timestep>
    <timestep time="37.50">
        <vehicle id="background.0" x="343.64" y="-1.60" angle="90.00" type="human" speed="10.70" pos="43.64" lane="e1_0" slope="0.00"/>
        <vehicle id="background.1" x="108.35" y="-1.60" angle="90.00" type="human" speed="12.68" pos="108.35" lane="e0_0" slope="0.00"/>
        <vehicle id="background.2" x="45.99" y="-1.60" angle="90.00" type="human" speed="13.54" pos="45.99" lane="e0_0" slope="0.00"/>
    </timestep>
    <timestep time="38.00">
        <vehicle id="background.0" x="348.85" y="-1.60" angle="90.00" type="human" speed="10.42" pos="48.85" lane="e1_0" slope="0.00"/>
        <vehicle id="background.1" x="114.92" y="-1.60" angle="90.00" type="human" speed="13.13" pos="114.92" lane="e0_0" slope="0.00"/>
        <vehicle id="background.2" x="52.91" y="-1.60" angle="90.00" type="human" speed="13.83" pos="52.91" lane="e0_0" slope="0.00"/>
    </timestep>
    <timestep time="38.50">
        <vehicle id="background.1" x="121.44" y="-1.60" angle="90.00" type="human" speed="13.04" pos="121.44" lane="e0_0" slope="0.00"/>
        <vehicle id="background.2" x="59.62" y="-1.60" angle="90.00" type="human" speed="13.42" pos="59.62" lane="e0_0" slope="0.00"/>
    </timestep>
    <timestep time="39.00">
        <vehicle id="background.1" x="128.00" y="-1.60" angle="90.00" type="human" speed="13.11" pos="128.00" lane="e0_0" slope="0.00"/>
        <vehicle id="background.2" x="66.54" y="-1.60" angle="90.00" type="human" speed="13.84" pos="66.54" lane="e0_0" slope="0.00"/>
    </timestep>
    <timestep time="39.50">
        <vehicle id="background.1" x="134.40" y="-1.60" angle="90.00" type="human" speed="12.82" pos="134.40" lane="e0_0" slope="0.00"/>
        <vehicle id="background.2" x="73.35" y="-1.60" angle="90.00" type="human" speed="13.62" pos="73.35" lane="e0_0" slope="0.00"/>
        <vehicle id="ego" x="5.10" y="-1.60" angle="90.00" type="ego_glosa_type" speed="0.00" pos="5.10" lane="e0_0" slope="0.00"/>
    </timestep>
    <timestep time="40.00">
        <vehicle id="background.1" x="140.94" y="-1.60" angle="90.00" type="human" speed="13.08" pos="140.94" lane="e0_0" slope="0.00"/>
        <vehicle id="background.2" x="80.18" y="-1.60" angle="90.00" type="human" speed="13.66" pos="80.18" lane="e0_0" slope="0.00"/>
        <vehicle id="ego" x="5.60" y="-1.60" angle="90.00" type="ego_glosa_type" speed="1.00" pos="5.60" lane="e0_0" slope="0.00"/>
    </timestep>
    <timestep time="40.50">
        <vehicle id="background.1" x="147.45" y="-1.60" angle="90.00" type="human" speed="13.01" pos="147.45" lane="e0_0" slope="0.00"/>
        <vehicle id="background.2" x="87.09" y="-1.60" angle="90.00" type="human" speed="13.81" pos="87.09" lane="e0_0" slope="0.00"/>
        <vehicle id="ego" x="6.60" y="-1.60" angle="90.00" type="ego_glosa_type" speed="2.00" pos="6.60" lane="e0_0" slope="0.00"/>
    </timestep>
    <timestep time="41.00">
        <vehicle id="background.1" x="153.81" y="-1.60" angle="90.00" type="human" speed="12.73" pos="153.81" lane="e0_0" slope="0.00"/>
        <vehicle id="background.2" x="93.79" y="-1.60" angle="90.00" type="human" speed="13.39" pos="93.79" lane="e0_0" slope="0.00"/>
        <vehicle id="ego" x="8.10" y="-1.60" angle="90.00" type="ego_glosa_type" speed="3.00" pos="8.10" lane="e0_0" slope="0.00"/>
    </timestep>
    <timestep time="41.50">
        <vehicle id="background.1" x="160.37" y="-1.60" angle="90.00" type="human" speed="13.11" pos="160.37" lane="e0_0" slope="0.00"/>
        <vehicle id="background.2" x="100.71" y="-1.60" angle="90.00" type="human" speed="13.84" pos="100.71" lane="e0_0" slope="0.00"/>
        <vehicle id="ego" x="10.10" y="-1.60" angle="90.00" type="ego_glosa_type" speed="4.00" pos="10.10" lane="e0_0" slope="0.00"/>
    </timestep>
    <timestep time="42.00">
        <vehicle id="background.1" x="166.91" y="-1.60" angle="90.00" type="human" speed="13.09" pos="166.91" lane="e0_0" slope="0.00"/>
        <vehicle id="background.2" x="107.52" y="-1.60" angle="90.00" type="human" speed="13.62" pos="107.52" lane="e0_0" slope="0.00"/>
        <vehicle id="ego" x="12.60" y="-1.60" angle="90.00" type="ego_glosa_type" speed="5.00" pos="12.60" lane="e0_0" slope="0.00"/>
    </timestep>
    <timestep time="42.50">
        <vehicle id="background.1" x="173.33" y="-1.60" angle="90.00" type="human" speed="12.84" pos="173.33" lane="e0_0" slope="0.00"/>
        <vehicle id="background.2" x="114.35" y="-1.60" angle="90.00" type="human" speed="13.66" pos="114.35" lane="e0_0" slope="0.00"/>
        <vehicle id="ego" x="15.60" y="-1.60" angle="90.00" type="ego_glosa_type" speed="6.00" pos="15.60" lane="e0_0" slope="0.00"/>
    </timestep>
    <timestep time="43.00">
        <vehicle id="background.1" x="179.90" y="-1.60" angle="90.00" type="human" speed="13.14" pos="179.90" lane="e0_0" slope="0.00"/>
        <vehicle id="background.2" x="121.12" y="-1.60" angle="90.00" type="human" speed="13.54" pos="121.12" lane="e0_0" slope="0.00"/>
        <vehicle id="ego" x="19.10" y="-1.60" angle="90.00" type="ego_glosa_type" speed="7.00" pos="19.10" lane="e0_0" slope="0.00"/>
    </timestep>
    <timestep time="43.50">
        <vehicle id="background.1" x="186.45" y="-1.60" angle="90.00" type="human" speed="13.09" pos="186.45" lane="e0_0" slope="0.00"/>
        <vehicle id="background.2" x="128.00" y="-1.60" angle="90.00" type="human" speed="13.75" pos="128.00" lane="e0_0" slope="0.00"/>
        <vehicle id="ego" x="23.10" y="-1.60" angle="90.00" type="ego_glosa_type" speed="8.00" pos="23.10" lane="e0_0" slope="0.00"/>
    </timestep>
    <timestep time="44.00">
        <vehicle id="background.1" x="192.89" y="-1.60" angle="90.00" type="human" speed="12.89" pos="192.89" lane="e0_0" slope="0.00"/>
        <vehicle id="background.2" x="134.86" y="-1.60" angle="90.00" type="human" speed="13.72" pos="134.86" lane="e0_0" slope="0.00"/>
        <vehicle id="ego" x="27.60" y="-1.60" angle="90.00" type="ego_glosa_type" speed="9.00" pos="27.60" lane="e0_0" slope="0.00"/>
    </timestep>
    <timestep time="44.50">
        <vehicle id="background.1" x="199.33" y="-1.60" angle="90.00" type="human" speed="12.87" pos="199.33" lane="e0_0" slope="0.00"/>
        <vehicle id="background.2" x="141.76" y="-1.60" angle="90.00" type="human" speed="13.81" pos="141.76" lane="e0_0" slope="0.00"/>
        <vehicle id="ego" x="32.60" y="-1.60" angle="90.00" type="ego_glosa_type" speed="10.00" pos="32.60" lane="e0_0" slope="0.00"/>
    </timestep>
    <timestep time="45.00">
        <vehicle id="background.1" x="205.71" y="-1.60" angle="90.00" type="human" speed="12.77" pos="205.71" lane="e0_0" slope="0.00"/>
        <vehicle id="background.2" x="148.53" y="-1.60" angle="90.00" type="human" speed="13.54" pos="148.53" lane="e0_0" slope="0.00"/>
        <vehicle id="ego" x="38.02" y="-1.60" angle="90.00" type="ego_glosa_type" speed="10.84" pos="38.02" lane="e0_0" slope="0.00"/>
    </timestep>
    <timestep time="45.50">
        <vehicle id="background.1" x="212.07" y="-1.60" angle="90.00" type="human" speed="12.72" pos="212.07" lane="e0_0" slope="0.00"/>
        <vehicle id="background.2" x="155.42" y="-1.60" angle="90.00" type="human" speed="13.77" pos="155.42" lane="e0_0" slope="0.00"/>
        <vehicle id="ego" x="43.44" y="-1.60" angle="90.00" type="ego_glosa_type" speed="10.84" pos="43.44" lane="e0_0" slope="0.00"/>
    </timestep>
    <timestep time="46.00">
        <vehicle id="background.1" x="218.63" y="-1.60" angle="90.00" type="human" speed="13.12" pos="218.63" lane="e0_0" slope="0.00"/>
        <vehicle id="background.2" x="162.18" y="-1.60" angle="90.00" type="human" speed="13.52" pos="162.18" lane="e0_0" slope="0.00"/>
        <vehicle id="ego" x="48.86" y="-1.60" angle="90.00" type="ego_glosa_type" speed="10.84" pos="48.86" lane="e0_0" slope="0.00"/>
    </timestep>
    <timestep time="46.50">
        <vehicle id="background.1" x="225.00" y="-1.60" angle="90.00" type="human" speed="12.73" pos="225.00" lane="e0_0" slope="0.00"/>
        <vehicle id="background.2" x="168.94" y="-1.60" angle="90.00" type="human" speed="13.53" pos="168.94" lane="e0_0" slope="0.00"/>
        <vehicle id="ego" x="54.28" y="-1.60" angle="90.00" type="ego_glosa_type" speed="10.84" pos="54.28" lane="e0_0" slope="0.00"/>
    </timestep>
    <timestep time="47.00">
        <vehicle id="background.1" x="231.58" y="-1.60" angle="90.00" type="human" speed="13.17" pos="231.58" lane="e0_0" slope="0.00"/>
        <vehicle id="background.2" x="175.78" y="-1.60" angle="90.00" type="human" speed="13.66" pos="175.78" lane="e0_0" slope="0.00"/>
        <vehicle id="ego" x="59.70" y="-1.60" angle="90.00" type="ego_glosa_type" speed="10.84" pos="59.70" lane="e0_0" slope="0.00"/>
    </timestep>
    <timestep time="47.50">
        <vehicle id="background.1" x="238.11" y="-1.60" angle="90.00" type="human" speed="13.06" pos="238.11" lane="e0_0" slope="0.00"/>
        <vehicle id="background.2" x="182.65" y="-1.60" angle="90.00" type="human" speed="13.75" pos="182.65" lane="e0_0" slope="0.00"/>
        <vehicle id="ego" x="65.12" y="-1.60" angle="90.00" type="ego_glosa_type" speed="10.84" pos="65.12" lane="e0_0" slope="0.00"/>
    </timestep>
    <timestep time="48.00">
        <vehicle id="background.1" x="244.49" y="-1.60" angle="90.00" type="human" speed="12.77" pos="244.49" lane="e0_0" slope="0.00"/>
        <vehicle id="background.2" x="189.39" y="-1.60" angle="90.00" type="human" speed="13.49" pos="189.39" lane="e0_0" slope="0.00"/>
        <vehicle id="ego" x="70.53" y="-1.60" angle="90.00" type="ego_glosa_type" speed="10.84" pos="70.53" lane="e0_0" slope="0.00"/>
    </timestep>
    <timestep time="48.50">
        <vehicle id="background.1" x="250.84" y="-1.60" angle="90.00" type="human" speed="12.70" pos="250.84" lane="e0_0" slope="0.00"/>
        <vehicle id="background.2" x="196.10" y="-1.60" angle="90.00" type="human" speed="13.41" pos="196.10" lane="e0_0" slope="0.00"/>
        <vehicle id="ego" x="75.95" y="-1.60" angle="90.00" type="ego_glosa_type" speed="10.84" pos="75.95" lane="e0_0" slope="0.00"/>
    </timestep>
    <timestep time="49.00">
        <vehicle id="background.1" x="257.36" y="-1.60" angle="90.00" type="human" speed="13.03" pos="257.36" lane="e0_0" slope="0.00"/>
        <vehicle id="background.2" x="202.80" y="-1.60" angle="90.00" type="human" speed="13.39" pos="202.80" lane="e0_0" slope="0.00"/>
        <vehicle id="ego" x="81.37" y="-1.60" angle="90.00" type="ego_glosa_type" speed="10.84" pos="81.37" lane="e0_0" slope="0.00"/>
    </timestep>
    <timestep time="49.50">
        <vehicle id="background.1" x="263.86" y="-1.60" angle="90.00" type="human" speed="13.02" pos="263.86" lane="e0_0" slope="0.00"/>
        <vehicle id="background.2" x="209.67" y="-1.60" angle="90.00" type="human" speed="13.74" pos="209.67" lane="e0_0" slope="0.00"/>
        <vehicle id="ego" x="86.79" y="-1.60" angle="90.00" type="ego_glosa_type" speed="10.84" pos="86.79" lane="e0_0" slope="0.00"/>
    </timestep>
    <timestep time="50.00">
        <vehicle id="background.1" x="270.36" y="-1.60" angle="90.00" type="human" speed="13.00" pos="270.36" lane="e0_0" slope="0.00"/>
        <vehicle id="background.2" x="216.51" y="-1.60" angle="90.00" type="human" speed="13.69" pos="216.51" lane="e0_0" slope="0.00"/>
        <vehicle id="ego" x="92.21" y="-1.60" angle="90.00" type="ego_glosa_type" speed="10.84" pos="92.21" lane="e0_0" slope="0.00"/>
    </timestep>
    <timestep time="50.50">
        <vehicle id="background.1" x="276.90" y="-1.60" angle="90.00" type="human" speed="13.08" pos="276.90" lane="e0_0" slope="0.00"/>
        <vehicle id="background.2" x="223.34" y="-1.60" angle="90.00" type="human" speed="13.66" pos="223.34" lane="e0_0" slope="0.00"/>
        <vehicle id="ego" x="97.63" y="-1.60" angle="90.00" type="ego_glosa_type" speed="10.84" pos="97.63" lane="e0_0" slope="0.00"/>
    </timestep>
    <timestep time="51.00">
        <vehicle id="background.1" x="283.38" y="-1.60" angle="90.00" type="human" speed="12.96" pos="283.38" lane="e0_0" slope="0.00"/>
        <vehicle id="background.2" x="230.21" y="-1.60" angle="90.00" type="human" speed="13.72" pos="230.21" lane="e0_0" slope="0.00"/>
        <vehicle id="ego" x="103.05" y="-1.60" angle="90.00" type="ego_glosa_type" speed="10.84" pos="103.05" lane="e0_0" slope="0.00"/>
    </timestep>
    <timestep time="51.50">
        <vehicle id="background.1" x="288.74" y="-1.60" angle="90.00" type="human" speed="10.71" pos="288.74" lane="e0_0" slope="0.00"/>
        <vehicle id="background.2" x="237.00" y="-1.60" angle="90.00" type="human" speed="13.60" pos="237.00" lane="e0_0" slope="0.00"/>
        <vehicle id="ego" x="108.47" y="-1.60" angle="90.00" type="ego_glosa_type" speed="10.84" pos="108.47" lane="e0_0" slope="0.00"/>
    </timestep>
    <timestep time="52.00">
        <vehicle id="background.1" x="292.97" y="-1.60" angle="90.00" type="human" speed="8.46" pos="292.97" lane="e0_0" slope="0.00"/>
        <vehicle id="background.2" x="243.86" y="-1.60" angle="90.00" type="human" speed="13.72" pos="243.86" lane="e0_0" slope="0.00"/>
        <vehicle id="ego" x="113.89" y="-1.60" angle="90.00" type="ego_glosa_type" speed="10.84" pos="113.89" lane="e0_0" slope="0.00"/>
    </timestep>
    <timestep time="52.50">
        <vehicle id="background.1" x="296.09" y="-1.60" angle="90.00" type="human" speed="6.24" pos="296.09" lane="e0_0" slope="0.00"/>
        <vehicle id="background.2" x="250.74" y="-1.60" angle="90.00" type="human" speed="13.75" pos="250.74" lane="e0_0" slope="0.00"/>
        <vehicle id="background.3" x="5.10" y="-1.60" angle="90.00" type="human" speed="11.60" pos="5.10" lane="e0_0" slope="0.00"/>
        <vehicle id="ego" x="119.31" y="-1.60" angle="90.00" type="ego_glosa_type" speed="10.84" pos="119.31" lane="e0_0" slope="0.00"/>
    </timestep>
    <timestep time="53.00">
        <vehicle id="background.1" x="298.09" y="-1.60" angle="90.00" type="human" speed="3.99" pos="298.09" lane="e0_0" slope="0.00"/>