<?xml version="1.0" encoding="UTF-8"?>

<!-- generated on 2026-05-14 17:06:21 by Eclipse SUMO sumo Version 1.24.0
<sumoConfiguration xmlns:xsi="http://www.w3.org/2001/XMLSchema-instance" xsi:noNamespaceSchemaLocation="http://sumo.dlr.de/xsd/sumoConfiguration.xsd">

    <input>
        <net-file value="scenarios/simple_arterial/simple_arterial.net.xml"/>
        <route-files value="scenarios/simple_arterial/simple_arterial_glosa.rou.xml"/>
        <additional-files value="scenarios/simple_arterial/simple_arterial.tls.xml"/>
    </input>

    <output>
        <fcd-output value="runs/fcd_expert_glosa/episode_00052_seed_94.fcd.xml"/>
    </output>

    <time>
        <begin value="0"/>
        <end value="900"/>
        <step-length value="0.5"/>
    </time>

    <report>
        <no-warnings value="true"/>
    </report>

    <traci_server>
        <remote-port value="37703"/>
    </traci_server>

    <random_number>
        <seed value="94"/>
    </random_number>

</sumoConfiguration>
-->

<fcd-export xmlns:xsi="http://www.w3.org/2001/XMLSchema-instance" xsi:noNamespaceSchemaLocation="http://sumo.dlr.de/xsd/fcd_file.xsd">
    <timestep time="0.00"/>
    <timestep time="0.50"/>
    <timestep time="1.00"/>
    <timestep time="1.50"/>
    <timestep time="2.00"/>
    <timestep time="2.50"/>
    <timestep time="3.00"/>
    <timestep time="3.50"/>
    <timestep time="4.00"/>
    <timestep time="4.50"/>
    <timestep time="5.00"/>
    <timestep time="5.50"/>
    <timestep time="6.00"/>
    <timestep time="6.50"/>
    <timestep time="7.00"/>
    <timestep time="7.50"/>
    <timestep time="8.00"/>
    <timestep time="8.50"/>
    <timestep time="9.00"/>
    <timestep time="9.50"/>
    <timestep time="10.00"/>
    <timestep time="10.50"/>
    <timestep time="11.00"/>
    <timestep time="11.50"/>
    <timestep time="12.00"/>
    <timestep time="12.50"/>
    <timestep time="13.00"/>
    <timestep time="13.50"/>
    <timestep time="14.00"/>
    <timestep time="14.50"/>
    <timestep time="15.00"/>
    <timestep time="15.50"/>
    <timestep time="16.00"/>
    <timestep time="16.50"/>
    <timestep time="17.00"/>
    <timestep time="17.50"/>
    <timestep time="18.00">
        <vehicle id="background.0" x="5.10" y="-1.60" angle="90.00" type="human" speed="13.89" pos="5.10" lane="e0_0" slope="0.00"/>
    </timestep>
    <timestep time="18.50">
        <vehicle id="background.0" x="11.99" y="-1.60" angle="90.00" type="human" speed="13.78" pos="11.99" lane="e0_0" slope="0.00"/>
    </timestep>
    <timestep time="19.00">
        <vehicle id="background.0" x="18.87" y="-1.60" angle="90.00" type="human" speed="13.76" pos="18.87" lane="e0_0" slope="0.00"/>
    </timestep>
    <timestep time="19.50">
        <vehicle id="background.0" x="25.77" y="-1.60" angle="90.00" type="human" speed="13.79" pos="25.77" lane="e0_0" slope="0.00"/>
    </timestep>
    <timestep time="20.00">
        <vehicle id="background.0" x="32.56" y="-1.60" angle="90.00" type="human" speed="13.58" pos="32.56" lane="e0_0" slope="0.00"/>
    </timestep>
    <timestep time="20.50">
        <vehicle id="background.0" x="39.28" y="-1.60" angle="90.00" type="human" speed="13.45" pos="39.28" lane="e0_0" slope="0.00"/>
    </timestep>
    <timestep time="21.00">
        <vehicle id="background.0" x="46.17" y="-1.60" angle="90.00" type="human" speed="13.77" pos="46.17" lane="e0_0" slope="0.00"/>
    </timestep>
    <timestep time="21.50">
        <vehicle id="background.0" x="52.93" y="-1.60" angle="90.00" type="human" speed="13.53" pos="52.93" lane="e0_0" slope="0.00"/>
    </timestep>
    <timestep time="22.00">
        <vehicle id="background.0" x="59.80" y="-1.60" angle="90.00" type="human" speed="13.74" pos="59.80" lane="e0_0" slope="0.00"/>
        <vehicle id="ego" x="5.10" y="-1.60" angle="90.00" type="ego_glosa_type" speed="0.00" pos="5.10" lane="e0_0" slope="0.00"/>
    </timestep>
    <timestep time="22.50">
        <vehicle id="background.0" x="66.61" y="-1.60" angle="90.00" type="human" speed="13.62" pos="66.61" lane="e0_0" slope="0.00"/>
        <vehicle id="ego" x="5.60" y="-1.60" angle="90.00" type="ego_glosa_type" speed="1.00" pos="5.60" lane="e0_0" slope="0.00"/>
    </timestep>
    <timestep time="23.00">
        <vehicle id="background.0" x="73.34" y="-1.60" angle="90.00" type="human" speed="13.46" pos="73.34" lane="e0_0" slope="0.00"/>
        <vehicle id="ego" x="6.60" y="-1.60" angle="90.00" type="ego_glosa_type" speed="2.00" pos="6.60" lane="e0_0" slope="0.00"/>
    </timestep>
    <timestep time="23.50">
        <vehicle id="background.0" x="80.10" y="-1.60" angle="90.00" type="human" speed="13.53" pos="80.10" lane="e0_0" slope="0.00"/>
        <vehicle id="ego" x="8.10" y="-1.60" angle="90.00" type="ego_glosa_type" speed="3.00" pos="8.10" lane="e0_0" slope="0.00"/>
    </timestep>
    <timestep time="24.00">
        <vehicle id="background.0" x="86.93" y="-1.60" angle="90.00" type="human" speed="13.65" pos="86.93" lane="e0_0" slope="0.00"/>
        <vehicle id="ego" x="10.10" y="-1.60" angle="90.00" type="ego_glosa_type" speed="4.00" pos="10.10" lane="e0_0" slope="0.00"/>
    </timestep>
    <timestep time="24.50">
        <vehicle id="background.0" x="93.68" y="-1.60" angle="90.00" type="human" speed="13.51" pos="93.68" lane="e0_0" slope="0.00"/>
        <vehicle id="ego" x="12.60" y="-1.60" angle="90.00" type="ego_glosa_type" speed="5.00" pos="12.60" lane="e0_0" slope="0.00"/>
    </timestep>
    <timestep time="25.00">
        <vehicle id="background.0" x="100.39" y="-1.60" angle="90.00" type="human" speed="13.40" pos="100.39" lane="e0_0" slope="0.00"/>
        <vehicle id="background.1" x="5.10" y="-1.60" angle="90.00" type="human" speed="4.50" pos="5.10" lane="e0_0" slope="0.00"/>
        <vehicle id="ego" x="15.60" y="-1.60" angle="90.00" type="ego_glosa_type" speed="6.00" pos="15.60" lane="e0_0" slope="0.00"/>
    </timestep>
    <timestep time="25.50">
        <vehicle id="background.0" x="107.20" y="-1.60" angle="90.00" type="human" speed="13.64" pos="107.20" lane="e0_0" slope="0.00"/>
        <vehicle id="background.1" x="7.11" y="-1.60" angle="90.00" type="human" speed="4.02" pos="7.11" lane="e0_0" slope="0.00"/>
        <vehicle id="ego" x="19.10" y="-1.60" angle="90.00" type="ego_glosa_type" speed="7.00" pos="19.10" lane="e0_0" slope="0.00"/>
    </timestep>
    <timestep time="26.00">
        <vehicle id="background.0" x="113.98" y="-1.60" angle="90.00" type="human" speed="13.56" pos="113.98" lane="e0_0" slope="0.00"/>
        <vehicle id="background.1" x="9.53" y="-1.60" angle="90.00" type="human" speed="4.85" pos="9.53" lane="e0_0" slope="0.00"/>
        <vehicle id="ego" x="23.10" y="-1.60" angle="90.00" type="ego_glosa_type" speed="8.00" pos="23.10" lane="e0_0" slope="0.00"/>
    </timestep>
    <timestep time="26.50">
        <vehicle id="background.0" x="120.80" y="-1.60" angle="90.00" type="human" speed="13.63" pos="120.80" lane="e0_0" slope="0.00"/>
        <vehicle id="background.1" x="12.37" y="-1.60" angle="90.00" type="human" speed="5.67" pos="12.37" lane="e0_0" slope="0.00"/>
        <vehicle id="ego" x="27.60" y="-1.60" angle="90.00" type="ego_glosa_type" speed="9.00" pos="27.60" lane="e0_0" slope="0.00"/>
    </timestep>
    <timestep time="27.00">
        <vehicle id="background.0" x="127.59" y="-1.60" angle="90.00" type="human" speed="13.58" pos="127.59" lane="e0_0" slope="0.00"/>
        <vehicle id="background.1" x="15.49" y="-1.60" angle="90.00" type="human" speed="6.23" pos="15.49" lane="e0_0" slope="0.00"/>
        <vehicle id="ego" x="32.60" y="-1.60" angle="90.00" type="ego_glosa_type" speed="10.00" pos="32.60" lane="e0_0" slope="0.00"/>
    </timestep>
    <timestep time="27.50">
        <vehicle id="background.0" x="134.47" y="-1.60" angle="90.00" type="human" speed="13.76" pos="134.47" lane="e0_0" slope="0.00"/>
        <vehicle id="background.1" x="19.00" y="-1.60" angle="90.00" type="human" speed="7.03" pos="19.00" lane="e0_0" slope="0.00"/>
        <vehicle id="ego" x="38.10" y="-1.60" angle="90.00" type="ego_glosa_type" speed="11.00" pos="38.10" lane="e0_0" slope="0.00"/>
    </timestep>
    <timestep time="28.00">
        <vehicle id="background.0" x="141.21" y="-1.60" angle="90.00" type="human" speed="13.48" pos="141.21" lane="e0_0" slope="0.00"/>
        <vehicle id="background.1" x="22.79" y="-1.60" angle="90.00" type="human" speed="7.58" pos="22.79" lane="e0_0" slope="0.00"/>
        <vehicle id="ego" x="44.10" y="-1.60" angle="90.00" type="ego_glosa_type" speed="12.00" pos="44.10" lane="e0_0" slope="0.00"/>
    </timestep>
    <timestep time="28.50">
        <vehicle id="background.0" x="148.06" y="-1.60" angle="90.00" type="human" speed="13.70" pos="148.06" lane="e0_0" slope="0.00"/>
        <vehicle id="background.1" x="27.03" y="-1.60" angle="90.00" type="human" speed="8.47" pos="27.03" lane="e0_0" slope="0.00"/>
        <vehicle id="ego" x="50.60" y="-1.60" angle="90.00" type="ego_glosa_type" speed="13.00" pos="50.60" lane="e0_0" slope="0.00"/>
    </timestep>
    <timestep time="29.00">
        <vehicle id="background.0" x="154.80" y="-1.60" angle="90.00" type="human" speed="13.48" pos="154.80" lane="e0_0" slope="0.00"/>
        <vehicle id="background.1" x="31.69" y="-1.60" angle="90.00" type="human" speed="9.33" pos="31.69" lane="e0_0" slope="0.00"/>
        <vehicle id="ego" x="57.55" y="-1.60" angle="90.00" type="ego_glosa_type" speed="13.89" pos="57.55" lane="e0_0" slope="0.00"/>
    </timestep>
    <timestep time="29.50">
        <vehicle id="background.0" x="161.67" y="-1.60" angle="90.00" type="human" speed="13.73" pos="161.67" lane="e0_0" slope="0.00"/>
        <vehicle id="background.1" x="36.84" y="-1.60" angle="90.00" type="human" speed="10.30" pos="36.84" lane="e0_0" slope="0.00"/>
        <vehicle id="ego" x="64.49" y="-1.60" angle="90.00" type="ego_glosa_type" speed="13.89" pos="64.49" lane="e0_0" slope="0.00"/>
    </timestep>
    <timestep time="30.00">
        <vehicle id="background.0" x="168.38" y="-1.60" angle="90.00" type="human" speed="13.43" pos="168.38" lane="e0_0" slope="0.00"/>
        <vehicle id="background.1" x="42.32" y="-1.60" angle="90.00" type="human" speed="10.96" pos="42.32" lane="e0_0" slope="0.00"/>
        <vehicle id="ego" x="71.44" y="-1.60" angle="90.00" type="ego_glosa_type" speed="13.89" pos="71.44" lane="e0_0" slope="0.00"/>
    </timestep>
    <timestep time="30.50">
        <vehicle id="background.0" x="175.13" y="-1.60" angle="90.00" type="human" speed="13.49" pos="175.13" lane="e0_0" slope="0.00"/>
        <vehicle id="background.1" x="48.23" y="-1.60" angle="90.00" type="human" speed="11.83" pos="48.23" lane="e0_0" slope="0.00"/>
        <vehicle id="ego" x="78.38" y="-1.60" angle="90.00" type="ego_glosa_type" speed="13.89" pos="78.38" lane="e0_0" slope="0.00"/>
    </timestep>
    <timestep time="31.00">
        <vehicle id="background.0" x="182.05" y="-1.60" angle="90.00" type="human" speed="13.85" pos="182.05" lane="e0_0" slope="0.00"/>
        <vehicle id="background.1" x="54.57" y="-1.60" angle="90.00" type="human" speed="12.68" pos="54.57" lane="e0_0" slope="0.00"/>
        <vehicle id="ego" x="85.32" y="-1.60" angle="90.00" type="ego_glosa_type" speed="13.89" pos="85.32" lane="e0_0" slope="0.00"/>
    </timestep>
    <timestep time="31.50">
        <vehicle id="background.0" x="188.89" y="-1.60" angle="90.00" type="human" speed="13.67" pos="188.89" lane="e0_0" slope="0.00"/>
        <vehicle id="background.1" x="61.16" y="-1.60" angle="90.00" type="human" speed="13.18" pos="61.16" lane="e0_0" slope="0.00"/>
        <vehicle id="ego" x="92.27" y="-1.60" angle="90.00" type="ego_glosa_type" speed="13.89" pos="92.27" lane="e0_0" slope="0.00"/>
    </timestep>
    <timestep time="32.00">
        <vehicle id="background.0" x="195.74" y="-1.60" angle="90.00" type="human" speed="13.72" pos="195.74" lane="e0_0" slope="0.00"/>
        <vehicle id="background.1" x="67.86" y="-1.60" angle="90.00" type="human" speed="13.40" pos="67.86" lane="e0_0" slope="0.00"/>
        <vehicle id="background.2" x="5.10" y="-1.60" angle="90.00" type="human" speed="13.89" pos="5.10" lane="e0_0" slope="0.00"/>
        <vehicle id="ego" x="99.21" y="-1.60" angle="90.00" type="ego_glosa_type" speed="13.89" pos="99.21" lane="e0_0" slope="0.00"/>
    </timestep>
    <timestep time="32.50">
        <vehicle id="background.0" x="202.46" y="-1.60" angle="90.00" type="human" speed="13.44" pos="202.46" lane="e0_0" slope="0.00"/>
        <vehicle id="background.1" x="74.72" y="-1.60" angle="90.00" type="human" speed="13.71" pos="74.72" lane="e0_0" slope="0.00"/>
        <vehicle id="background.2" x="11.85" y="-1.60" angle="90.00" type="human" speed="13.50" pos="11.85" lane="e0_0" slope="0.00"/>
        <vehicle id="ego" x="106.16" y="-1.60" angle="90.00" type="ego_glosa_type" speed="13.89" pos="106.16" lane="e0_0" slope="0.00"/>
    </timestep>
    <timestep time="33.00">
        <vehicle id="background.0" x="209.32" y="-1.60" angle="90.00" type="human" speed="13.71" pos="209.32" lane="e0_0" slope="0.00"/>
        <vehicle id="background.1" x="81.55" y="-1.60" angle="90.00" type="human" speed="13.66" pos="81.55" lane="e0_0" slope="0.00"/>
        <vehicle id="background.2" x="18.74" y="-1.60" angle="90.00" type="human" speed="13.79" pos="18.74" lane="e0_0" slope="0.00"/>
        <vehicle id="ego" x="113.10" y="-1.60" angle="90.00" type="ego_glosa_type" speed="13.89" pos="113.10" lane="e0_0" slope="0.00"/>
    </timestep>
    <timestep time="33.50">
        <vehicle id="background.0" x="216.26" y="-1.60" angle="90.00" type="human" speed="13.89" pos="216.26" lane="e0_0" slope="0.00"/>
        <vehicle id="background.1" x="88.35" y="-1.60" angle="90.00" type="human" speed="13.60" pos="88.35" lane="e0_0" slope="0.00"/>
        <vehicle id="background.2" x="25.58" y="-1.60" angle="90.00" type="human" speed="13.68" pos="25.58" lane="e0_0" slope="0.00"/>
        <vehicle id="ego" x="120.05" y="-1.60" angle="90.00" type="ego_glosa_type" speed="13.89" pos="120.05" lane="e0_0" slope="0.00"/>
    </timestep>
    <timestep time="34.00">
        <vehicle id="background.0" x="223.19" y="-1.60" angle="90.00" type="human" speed="13.86" pos="223.19" lane="e0_0" slope="0.00"/>
        <vehicle id="background.1" x="95.25" y="-1.60" angle="90.00" type="human" speed="13.82" pos="95.25" lane="e0_0" slope="0.00"/>
        <vehicle id="background.2" x="32.29" y="-1.60" angle="90.00" type="human" speed="13.41" pos="32.29" lane="e0_0" slope="0.00"/>
        <vehicle id="ego" x="126.99" y="-1.60" angle="90.00" type="ego_glosa_type" speed="13.89" pos="126.99" lane="e0_0" slope="0.00"/>
    </timestep>
    <timestep time="34.50">
        <vehicle id="background.0" x="230.06" y="-1.60" angle="90.00" type="human" speed="13.73" pos="230.06" lane="e0_0" slope="0.00"/>
        <vehicle id="background.1" x="101.97" y="-1.60" angle="90.00" type="human" speed="13.43" pos="101.97" lane="e0_0" slope="0.00"/>
        <vehicle id="background.2" x="39.00" y="-1.60" angle="90.00" type="human" speed="13.42" pos="39.00" lane="e0_0" slope="0.00"/>
        <vehicle id="ego" x="133.94" y="-1.60" angle="90.00" type="ego_glosa_type" speed="13.89" pos="133.94" lane="e0_0" slope="0.00"/>
    </timestep>
    <timestep time="35.00">
        <vehicle id="background.0" x="236.93" y="-1.60" angle="90.00" type="human" speed="13.75" pos="236.93" lane="e0_0" slope="0.00"/>
        <vehicle id="background.1" x="108.86" y="-1.60" angle="90.00" type="human" speed="13.77" pos="108.86" lane="e0_0" slope="0.00"/>
        <vehicle id="background.2" x="45.86" y="-1.60" angle="90.00" type="human" speed="13.71" pos="45.86" lane="e0_0" slope="0.00"/>
        <vehicle id="ego" x="140.88" y="-1.60" angle="90.00" type="ego_glosa_type" speed="13.89" pos="140.88" lane="e0_0" slope="0.00"/>
    </timestep>
    <timestep time="35.50">
        <vehicle id="background.0" x="243.76" y="-1.60" angle="90.00" type="human" speed="13.65" pos="243.76" lane="e0_0" slope="0.00"/>
        <vehicle id="background.1" x="115.64" y="-1.60" angle="90.00" type="human" speed="13.57" pos="115.64" lane="e0_0" slope="0.00"/>
        <vehicle id="background.2" x="52.77" y="-1.60" angle="90.00" type="human" speed="13.83" pos="52.77" lane="e0_0" slope="0.00"/>
        <vehicle id="ego" x="147.83" y="-1.60" angle="90.00" type="ego_glosa_type" speed="13.89" pos="147.83" lane="e0_0" slope="0.00"/>
    </timestep>
    <timestep time="36.00">
        <vehicle id="background.0" x="250.49" y="-1.60" angle="90.00" type="human" speed="13.46" pos="250.49" lane="e0_0" slope="0.00"/>
        <vehicle id="background.1" x="122.49" y="-1.60" angle="90.00" type="human" speed="13.70" pos="122.49" lane="e0_0" slope="0.00"/>
        <vehicle id="background.2" x="59.62" y="-1.60" angle="90.00" type="human" speed="13.71" pos="59.62" lane="e0_0" slope="0.00"/>
        <vehicle id="ego" x="154.77" y="-1.60" angle="90.00" type="ego_glosa_type" speed="13.89" pos="154.77" lane="e0_0" slope="0.00"/>
    </timestep>
    <timestep time="36.50">
        <vehicle id="background.0" x="257.24" y="-1.60" angle="90.00" type="human" speed="13.49" pos="257.24" lane="e0_0" slope="0.00"/>
        <vehicle id="background.1" x="129.36" y="-1.60" angle="90.00" type="human" speed="13.73" pos="129.36" lane="e0_0" slope="0.00"/>
        <vehicle id="background.2" x="66.34" y="-1.60" angle="90.00" type="human" speed="13.43" pos="66.34" lane="e0_0" slope="0.00"/>
        <vehicle id="ego" x="161.72" y="-1.60" angle="90.00" type="ego_glosa_type" speed="13.89" pos="161.72" lane="e0_0" slope="0.00"/>
    </timestep>
    <timestep time="37.00">
        <vehicle id="background.0" x="264.15" y="-1.60" angle="90.00" type="human" speed="13.84" pos="264.15" lane="e0_0" slope="0.00"/>
        <vehicle id="background.1" x="136.15" y="-1.60" angle="90.00" type="human" speed="13.59" pos="136.15" lane="e0_0" slope="0.00"/>
        <vehicle id="background.2" x="73.11" y="-1.60" angle="90.00" type="human" speed="13.54" pos="73.11" lane="e0_0" slope="0.00"/>
        <vehicle id="background.3" x="5.10" y="-1.60" angle="90.00" type="human" speed="12.10" pos="5.10" lane="e0_0" slope="0.00"/>
        <vehicle id="ego" x="168.66" y="-1.60" angle="90.00" type="ego_glosa_type" speed="13.89" pos="168.66" lane="e0_0" slope="0.00"/>
    </timestep>
    <timestep time="37.50">
        <vehicle id="background.0" x="271.09" y="-1.60" angle="90.00" type="human" speed="13.87" pos="271.09" lane="e0_0" slope="0.00"/>
        <vehicle id="background.1" x="142.86" y="-1.60" angle="90.00" type="human" speed="13.41" pos="142.86" lane="e0_0" slope="0.00"/>
        <vehicle id="background.2" x="79.94" y="-1.60" angle="90.00" type="human" speed="13.66" pos="79.94" lane="e0_0" slope="0.00"/>
        <vehicle id="background.3" x="10.97" y="-1.60" angle="90.00" type="human" speed="11.75" pos="10.97" lane="e0_0" slope="0.00"/>
        <vehicle id="ego" x="175.61" y="-1.60" angle="90.00" type="ego_glosa_type" speed="13.89" pos="175.61" lane="e0_0" slope="0.00"/>
    </timestep>
    <timestep time="38.00">
        <vehicle id="background.0" x="277.99" y="-1.60" angle="90.00" type="human" speed="13.80" pos="277.99" lane="e0_0" slope="0.00"/>
        <vehicle id="background.1" x="149.78" y="-1.60" angle="90.00" type="human" speed="13.85" pos="149.78" lane="e0_0" slope="0.00"/>
        <vehicle id="background.2" x="86.88" y="-1.60" angle="90.00" type="human" speed="13.88" pos="86.88" lane="e0_0" slope="0.00"/>
        <vehicle id="background.3" x="16.85" y="-1.60" angle="90.00" type="human" speed="11.74" pos="16.85" lane="e0_0" slope="0.00"/>
        <vehicle id="ego" x="182.55" y="-1.60" angle="90.00" type="ego_glosa_type" speed="13.89" pos="182.55" lane="e0_0" slope="0.00"/>
    </timestep>
    <timestep time="38.50">
        <vehicle id="background.0" x="284.78" y="-1.60" angle="90.00" type="human" speed="13.58" pos="284.78" lane="e0_0" slope="0.00"/>
        <vehicle id="background.1" x="156.71" y="-1.60" angle="90.00" type="human" speed="13.87" pos="156.71" lane="e0_0" slope="0.00"/>
        <vehicle id="background.2" x="93.66" y="-1.60" angle="90.00" type="human" speed="13.57" pos="93.66" lane="e0_0" slope="0.00"/>
        <vehicle id="background.3" x="22.65" y="-1.60" angle="90.00" type="human" speed="11.60" pos="22.65" lane="e0_0" slope="0.00"/>
        <vehicle id="ego" x="189.50" y="-1.60" angle="90.00" type="ego_glosa_type" speed="13.89" pos="189.50" lane="e0_0" slope="0.00"/>
    </timestep>
    <timestep time="39.00">
        <vehicle id="background.0" x="291.55" y="-1.60" angle="90.00" type="human" speed="13.53" pos="291.55" lane="e0_0" slope="0.00"/>
        <vehicle id="background.1" x="163.49" y="-1.60" angle="90.00" type="human" speed="13.55" pos="163.49" lane="e0_0" slope="0.00"/>
        <vehicle id="background.2" x="100.48" y="-1.60" angle="90.00" type="human" speed="13.64" pos="100.48" lane="e0_0" slope="0.00"/>
        <vehicle id="background.3" x="28.62" y="-1.60" angle="90.00" type="human" speed="11.95" pos="28.62" lane="e0_0" slope="0.00"/>
        <vehicle id="ego" x="196.44" y="-1.60" angle="90.00" type="ego_glosa_type" speed="13.89" pos="196.44" lane="e0_0" slope="0.00"/>
    </timestep>
    <timestep time="39.50">
        <vehicle id="background.0" x="298.25" y="-1.60" angle="90.00" type="human" speed="13.41" pos="298.25" lane="e0_0" slope="0.00"/>
        <vehicle id="background.1" x="170.20" y="-1.60" angle="90.00" type="human" speed="13.41" pos="170.20" lane="e0_0" slope="0.00"/>
        <vehicle id="background.2" x="107.21" y="-1.60" angle="90.00" type="human" speed="13.46" pos="107.21" lane="e0_0" slope="0.00"/>
        <vehicle id="background.3" x="34.55" y="-1.60" angle="90.00" type="human" speed="11.87" pos="34.55" lane="e0_0" slope="0.00"/>
        <vehicle id="ego" x="203.39" y="-1.60" angle="90.00" type="ego_glosa_type" speed="13.89" pos="203.39" lane="e0_0" slope="0.00"/>
    </timestep>
    <timestep time="40.00">
        <vehicle id="background.0" x="304.92" y="-1.60" angle="90.00" type="human" speed="13.54" pos="4.92" lane="e1_0" slope="0.00"/>
        <vehicle id="background.1" x="176.99" y="-1.60" angle="90.00" type="human" speed="13.59" pos="176.99" lane="e0_0" slope="0.00"/>
        <vehicle id="background.2" x="113.93" y="-1.60" angle="90.00" type="human" speed="13.43" pos="113.93" lane="e0_0" slope="0.00"/>
        <vehicle id="background.3" x="40.43" y="-1.60" angle="90.00" type="human" speed="11.75" pos="40.43" lane="e0_0" slope="0.00"/>
        <vehicle id="ego" x="210.33" y="-1.60" angle="90.00" type="ego_glosa_type" speed="13.89" pos="210.33" lane="e0_0" slope="0.00"/>
    </timestep>
    <timestep time="40.50">
        <vehicle id="background.0" x="311.81" y="-1.60" angle="90.00" type="human" speed="13.78" pos="11.81" lane="e1_0" slope="0.00"/>
        <vehicle id="background.1" x="183.70" y="-1.60" angle="90.00" type="human" speed="13.41" pos="183.70" lane="e0_0" slope="0.00"/>
        <vehicle id="background.2" x="120.79" y="-1.60" angle="90.00" type="human" speed="13.72" pos="120.79" lane="e0_0" slope="0.00"/>
        <vehicle id="background.3" x="46.46" y="-1.60" angle="90.00" type="human" speed="12.07" pos="46.46" lane="e0_0" slope="0.00"/>
        <vehicle id="ego" x="217.28" y="-1.60" angle="90.00" type="ego_glosa_type" speed="13.89" pos="217.28" lane="e0_0" slope="0.00"/>
    </timestep>
    <timestep time="41.00">
        <vehicle id="background.0" x="318.64" y="-1.60" angle="90.00" type="human" speed="13.65" pos="18.64" lane="e1_0" slope="0.00"/>
        <vehicle id="background.1" x="190.42" y="-1.60" angle="90.00" type="human" speed="13.45" pos="190.42" lane="e0_0" slope="0.00"/>
        <vehicle id="background.2" x="127.60" y="-1.60" angle="90.00" type="human" speed="13.62" pos="127.60" lane="e0_0" slope="0.00"/>
        <vehicle id="background.3" x="52.35" y="-1.60" angle="90.00" type="human" speed="11.78" pos="52.35" lane="e0_0" slope="0.00"/>
        <vehicle id="ego" x="224.22" y="-1.60" angle="90.00" type="ego_glosa_type" speed="13.89" pos="224.22" lane="e0_0" slope="0.00"/>
    </timestep>
    <timestep time="41.50">
        <vehicle id="background.0" x="325.35" y="-1.60" angle="90.00" type="human" speed="13.44" pos="25.35" lane="e1_0" slope="0.00"/>
        <vehicle id="background.1" x="197.13" y="-1.60" angle="90.00" type="human" speed="13.41" pos="197.13" lane="e0_0" slope="0.00"/>
        <vehicle id="background.2" x="134.35" y="-1.60" angle="90.00" type="human" speed="13.49" pos="134.35" lane="e0_0" slope="0.00"/>
        <vehicle id="background.3" x="58.20" y="-1.60" angle="90.00" type="human" speed="11.70" pos="58.20" lane="e0_0" slope="0.00"/>
        <vehicle id="ego" x="231.17" y="-1.60" angle="90.00" type="ego_glosa_type" speed="13.89" pos="231.17" lane="e0_0" slope="0.00"/>
    </timestep>
    <timestep time="42.00">
        <vehicle id="background.0" x="332.08" y="-1.60" angle="90.00" type="human" speed="13.44" pos="32.08" lane="e1_0" slope="0.00"/>
        <vehicle id="background.1" x="203.95" y="-1.60" angle="90.00" type="human" speed="13.65" pos="203.95" lane="e0_0" slope="0.00"/>
        <vehicle id="background.2" x="141.28" y="-1.60" angle="90.00" type="human" speed="13.87" pos="141.28" lane="e0_0" slope="0.00"/>
        <vehicle id="background.3" x="64.01" y="-1.60" angle="90.00" type="human" speed="11.62" pos="64.01" lane="e0_0" slope="0.00"/>
        <vehicle id="ego" x="238.11" y="-1.60" angle="90.00" type="ego_glosa_type" speed="13.89" pos="238.11" lane="e0_0" slope="0.00"/>
    </timestep>
    <timestep time="42.50">
        <vehicle id="background.0" x="338.82" y="-1.60" angle="90.00" type="human" speed="13.48" pos="38.82" lane="e1_0" slope="0.00"/>
        <vehicle id="background.1" x="210.80" y="-1.60" angle="90.00" type="human" speed="13.70" pos="210.80" lane="e0_0" slope="0.00"/>
        <vehicle id="background.2" x="147.98" y="-1.60" angle="90.00" type="human" speed="13.40" pos="147.98" lane="e0_0" slope="0.00"/>
        <vehicle id="background.3" x="69.89" y="-1.60" angle="90.00" type="human" speed="11.76" pos="69.89" lane="e0_0" slope="0.00"/>
        <vehicle id="ego" x="245.06" y="-1.60" angle="90.00" type="ego_glosa_type" speed="13.89" pos="245.06" lane="e0_0" slope="0.00"/>
    </timestep>
    <timestep time="43.00">
        <vehicle id="background.0" x="345.75" y="-1.60" angle="90.00" type="human" speed="13.88" pos="45.75" lane="e1_0" slope="0.00"/>
        <vehicle id="background.1" x="217.71" y="-1.60" angle="90.00" type="human" speed="13.82" pos="217.71" lane="e0_0" slope="0.00"/>
        <vehicle id="background.2" x="154.91" y="-1.60" angle="90.00" type="human" speed="13.86" pos="154.91" lane="e0_0" slope="0.00"/>
        <vehicle id="background.3" x="75.91" y="-1.60" angle="90.00" type="human" speed="12.05" pos="75.91" lane="e0_0" slope="0.00"/>
        <vehicle id="ego" x="252.00" y="-1.60" angle="90.00" type="ego_glosa_type" speed="13.89" pos="252.00" lane="e0_0" slope="0.00"/>
    </timestep>
    <timestep time="43.50">
        <vehicle id="background.1" x="224.50" y="-1.60" angle="90.00" type="human" speed="13.57" pos="224.50" lane="e0_0" slope="0.00"/>
        <vehicle id="background.2" x="161.71" y="-1.60" angle="90.00" type="human" speed="13.59" pos="161.71" lane="e0_0" slope="0.00"/>
        <vehicle id="background.3" x="81.83" y="-1.60" angle="90.00" type="human" speed="11.84" pos="81.83" lane="e0_0" slope="0.00"/>
        <vehicle id="ego" x="258.95" y="-1.60" angle="90.00" type="ego_glosa_type" speed="13.89" pos="258.95" lane="e0_0" slope="0.00"/>
    </timestep>
    <timestep time="44.00">
        <vehicle id="background.1" x="231.21" y="-1.60" angle="90.00" type="human" speed="13.42" pos="231.21" lane="e0_0" slope="0.00"/>
        <vehicle id="background.2" x="168.51" y="-1.60" angle="90.00" type="human" speed="13.61" pos="168.51" lane="e0_0" slope="0.00"/>
        <vehicle id="background.3" x="87.74" y="-1.60" angle="90.00" type="human" speed="11.81" pos="87.74" lane="e0_0" slope="0.00"/>
        <vehicle id="ego" x="265.89" y="-1.60" angle="90.00" type="ego_glosa_type" speed="13.89" pos="265.89" lane="e0_0" slope="0.00"/>
    </timestep>
    <timestep time="44.50">
        <vehicle id="background.1" x="238.14" y="-1.60" angle="90.00" type="human" speed="13.86" pos="238.14" lane="e0_0" slope="0.00"/>
        <vehicle id="background.2" x="175.31" y="-1.60" angle="90.00" type="human" speed="13.59" pos="175.31" lane="e0_0" slope="0.00"/>
        <vehicle id="background.3" x="93.54" y="-1.60" angle="90.00" type="human" speed="11.60" pos="93.54" lane="e0_0" slope="0.00"/>
        <vehicle id="ego" x="272.84" y="-1.60" angle="90.00" type="ego_glosa_type" speed="13.89" pos="272.84" lane="e0_0" slope="0.00"/>
    </timestep>
    <timestep time="45.00">
        <vehicle id="background.1" x="245.00" y="-1.60" angle="90.00" type="human" speed="13.72" pos="245.00" lane="e0_0" slope="0.00"/>
        <vehicle id="background.2" x="182.22" y="-1.60" angle="90.00" type="human" speed="13.81" pos="182.22" lane="e0_0" slope="0.00"/>
        <vehicle id="background.3" x="99.55" y="-1.60" angle="90.00" type="human" speed="12.03" pos="99.55" lane="e0_0" slope="0.00"/>
        <vehicle id="ego" x="279.78" y="-1.60" angle="90.00" type="ego_glosa_type" speed="13.89" pos="279.78" lane="e0_0" slope="0.00"/>
    </timestep>
    <timestep time="45.50">
        <vehicle id="background.1" x="251.71" y="-1.60" angle="90.00" type="human" speed="13.42" pos="251.71" lane="e0_0" slope="0.00"/>
        <vehicle id="background.2" x="189.05" y="-1.60" angle="90.00" type="human" speed="13.67" pos="189.05" lane="e0_0" slope="0.00"/>
        <vehicle id="background.3" x="105.39" y="-1.60" angle="90.00" type="human" speed="11.68" pos="105.39" lane="e0_0" slope="0.00"/>