<?xml version="1.0" encoding="UTF-8"?>

<!-- generated on 2026-05-13 21:24:28 by Eclipse SUMO sumo Version 1.24.0
<sumoConfiguration xmlns:xsi="http://www.w3.org/2001/XMLSchema-instance" xsi:noNamespaceSchemaLocation="http://sumo.dlr.de/xsd/sumoConfiguration.xsd">

    <input>
        <net-file value="scenarios/simple_arterial/simple_arterial.net.xml"/>
        <route-files value="scenarios/simple_arterial/simple_arterial_glosa.rou.xml"/>
        <additional-files value="scenarios/simple_arterial/simple_arterial.tls.xml"/>
    </input>

    <output>
        <fcd-output value="runs/fcd_expert_glosa/episode_00018_seed_60.fcd.xml"/>
    </output>

    <time>
        <begin value="0"/>
        <end value="900"/>
        <step-length value="0.5"/>
    </time>

    <report>
        <no-warnings value="true"/>
    </report>

    <traci_server>
        <remote-port value="27311"/>
    </traci_server>

    <random_number>
        <seed value="60"/>
    </random_number>

</sumoConfiguration>
-->

<fcd-export xmlns:xsi="http://www.w3.org/2001/XMLSchema-instance" xsi:noNamespaceSchemaLocation="http://sumo.dlr.de/xsd/fcd_file.xsd">
    <timestep time="0.00"/>
    <timestep time="0.50"/>
    <timestep time="1.00"/>
    <timestep time="1.50"/>
    <timestep time="2.00"/>
    <timestep time="2.50"/>
    <timestep time="3.00"/>
    <timestep time="3.50"/>
    <timestep time="4.00"/>
    <timestep time="4.50"/>
    <timestep time="5.00"/>
    <timestep time="5.50"/>
    <timestep time="6.00"/>
    <timestep time="6.50"/>
    <timestep time="7.00">
        <vehicle id="background.0" x="5.10" y="-1.60" angle="90.00" type="human" speed="12.87" pos="5.10" lane="e0_0" slope="0.00"/>
    </timestep>
    <timestep time="7.50">
        <vehicle id="background.0" x="11.33" y="-1.60" angle="90.00" type="human" speed="12.46" pos="11.33" lane="e0_0" slope="0.00"/>
    </timestep>
    <timestep time="8.00">
        <vehicle id="background.0" x="17.55" y="-1.60" angle="90.00" type="human" speed="12.44" pos="17.55" lane="e0_0" slope="0.00"/>
    </timestep>
    <timestep time="8.50">
        <vehicle id="background.0" x="23.94" y="-1.60" angle="90.00" type="human" speed="12.78" pos="23.94" lane="e0_0" slope="0.00"/>
    </timestep>
    <timestep time="9.00">
        <vehicle id="background.0" x="30.36" y="-1.60" angle="90.00" type="human" speed="12.84" pos="30.36" lane="e0_0" slope="0.00"/>
    </timestep>
    <timestep time="9.50">
        <vehicle id="background.0" x="36.58" y="-1.60" angle="90.00" type="human" speed="12.44" pos="36.58" lane="e0_0" slope="0.00"/>
    </timestep>
    <timestep time="10.00">
        <vehicle id="background.0" x="42.88" y="-1.60" angle="90.00" type="human" speed="12.60" pos="42.88" lane="e0_0" slope="0.00"/>
    </timestep>
    <timestep time="10.50">
        <vehicle id="background.0" x="49.20" y="-1.60" angle="90.00" type="human" speed="12.62" pos="49.20" lane="e0_0" slope="0.00"/>
    </timestep>
    <timestep time="11.00">
        <vehicle id="background.0" x="55.51" y="-1.60" angle="90.00" type="human" speed="12.63" pos="55.51" lane="e0_0" slope="0.00"/>
    </timestep>
    <timestep time="11.50">
        <vehicle id="background.0" x="61.71" y="-1.60" angle="90.00" type="human" speed="12.39" pos="61.71" lane="e0_0" slope="0.00"/>
    </timestep>
    <timestep time="12.00">
        <vehicle id="background.0" x="68.01" y="-1.60" angle="90.00" type="human" speed="12.60" pos="68.01" lane="e0_0" slope="0.00"/>
    </timestep>
    <timestep time="12.50">
        <vehicle id="background.0" x="74.44" y="-1.60" angle="90.00" type="human" speed="12.87" pos="74.44" lane="e0_0" slope="0.00"/>
    </timestep>
    <timestep time="13.00">
        <vehicle id="background.0" x="80.82" y="-1.60" angle="90.00" type="human" speed="12.76" pos="80.82" lane="e0_0" slope="0.00"/>
    </timestep>
    <timestep time="13.50">
        <vehicle id="background.0" x="87.03" y="-1.60" angle="90.00" type="human" speed="12.41" pos="87.03" lane="e0_0" slope="0.00"/>
    </timestep>
    <timestep time="14.00">
        <vehicle id="background.0" x="93.29" y="-1.60" angle="90.00" type="human" speed="12.53" pos="93.29" lane="e0_0" slope="0.00"/>
    </timestep>
    <timestep time="14.50">
        <vehicle id="background.0" x="99.57" y="-1.60" angle="90.00" type="human" speed="12.56" pos="99.57" lane="e0_0" slope="0.00"/>
    </timestep>
    <timestep time="15.00">
        <vehicle id="background.0" x="105.78" y="-1.60" angle="90.00" type="human" speed="12.41" pos="105.78" lane="e0_0" slope="0.00"/>
    </timestep>
    <timestep time="15.50">
        <vehicle id="background.0" x="112.14" y="-1.60" angle="90.00" type="human" speed="12.72" pos="112.14" lane="e0_0" slope="0.00"/>
    </timestep>
    <timestep time="16.00">
        <vehicle id="background.0" x="118.46" y="-1.60" angle="90.00" type="human" speed="12.64" pos="118.46" lane="e0_0" slope="0.00"/>
    </timestep>
    <timestep time="16.50">
        <vehicle id="background.0" x="124.81" y="-1.60" angle="90.00" type="human" speed="12.70" pos="124.81" lane="e0_0" slope="0.00"/>
    </timestep>
    <timestep time="17.00">
        <vehicle id="background.0" x="131.01" y="-1.60" angle="90.00" type="human" speed="12.41" pos="131.01" lane="e0_0" slope="0.00"/>
    </timestep>
    <timestep time="17.50">
        <vehicle id="background.0" x="137.42" y="-1.60" angle="90.00" type="human" speed="12.80" pos="137.42" lane="e0_0" slope="0.00"/>
    </timestep>
    <timestep time="18.00">
        <vehicle id="background.0" x="143.80" y="-1.60" angle="90.00" type="human" speed="12.77" pos="143.80" lane="e0_0" slope="0.00"/>
    </timestep>
    <timestep time="18.50">
        <vehicle id="background.0" x="150.12" y="-1.60" angle="90.00" type="human" speed="12.63" pos="150.12" lane="e0_0" slope="0.00"/>
    </timestep>
    <timestep time="19.00">
        <vehicle id="background.0" x="156.33" y="-1.60" angle="90.00" type="human" speed="12.43" pos="156.33" lane="e0_0" slope="0.00"/>
    </timestep>
    <timestep time="19.50">
        <vehicle id="background.0" x="162.55" y="-1.60" angle="90.00" type="human" speed="12.43" pos="162.55" lane="e0_0" slope="0.00"/>
    </timestep>
    <timestep time="20.00">
        <vehicle id="background.0" x="168.97" y="-1.60" angle="90.00" type="human" speed="12.85" pos="168.97" lane="e0_0" slope="0.00"/>
    </timestep>
    <timestep time="20.50">
        <vehicle id="background.0" x="175.30" y="-1.60" angle="90.00" type="human" speed="12.65" pos="175.30" lane="e0_0" slope="0.00"/>
    </timestep>
    <timestep time="21.00">
        <vehicle id="background.0" x="181.59" y="-1.60" angle="90.00" type="human" speed="12.58" pos="181.59" lane="e0_0" slope="0.00"/>
    </timestep>
    <timestep time="21.50">
        <vehicle id="background.0" x="187.91" y="-1.60" angle="90.00" type="human" speed="12.64" pos="187.91" lane="e0_0" slope="0.00"/>
    </timestep>
    <timestep time="22.00">
        <vehicle id="background.0" x="194.21" y="-1.60" angle="90.00" type="human" speed="12.61" pos="194.21" lane="e0_0" slope="0.00"/>
    </timestep>
    <timestep time="22.50">
        <vehicle id="background.0" x="200.43" y="-1.60" angle="90.00" type="human" speed="12.43" pos="200.43" lane="e0_0" slope="0.00"/>
    </timestep>
    <timestep time="23.00">
        <vehicle id="background.0" x="206.76" y="-1.60" angle="90.00" type="human" speed="12.66" pos="206.76" lane="e0_0" slope="0.00"/>
    </timestep>
    <timestep time="23.50">
        <vehicle id="background.0" x="213.03" y="-1.60" angle="90.00" type="human" speed="12.54" pos="213.03" lane="e0_0" slope="0.00"/>
    </timestep>
    <timestep time="24.00">
        <vehicle id="background.0" x="219.31" y="-1.60" angle="90.00" type="human" speed="12.56" pos="219.31" lane="e0_0" slope="0.00"/>
    </timestep>
    <timestep time="24.50">
        <vehicle id="background.0" x="225.73" y="-1.60" angle="90.00" type="human" speed="12.83" pos="225.73" lane="e0_0" slope="0.00"/>
    </timestep>
    <timestep time="25.00">
        <vehicle id="background.0" x="232.10" y="-1.60" angle="90.00" type="human" speed="12.73" pos="232.10" lane="e0_0" slope="0.00"/>
    </timestep>
    <timestep time="25.50">
        <vehicle id="background.0" x="238.53" y="-1.60" angle="90.00" type="human" speed="12.86" pos="238.53" lane="e0_0" slope="0.00"/>
    </timestep>
    <timestep time="26.00">
        <vehicle id="background.0" x="244.72" y="-1.60" angle="90.00" type="human" speed="12.40" pos="244.72" lane="e0_0" slope="0.00"/>
    </timestep>
    <timestep time="26.50">
        <vehicle id="background.0" x="250.98" y="-1.60" angle="90.00" type="human" speed="12.51" pos="250.98" lane="e0_0" slope="0.00"/>
    </timestep>
    <timestep time="27.00">
        <vehicle id="background.0" x="257.39" y="-1.60" angle="90.00" type="human" speed="12.82" pos="257.39" lane="e0_0" slope="0.00"/>
    </timestep>
    <timestep time="27.50">
        <vehicle id="background.0" x="263.65" y="-1.60" angle="90.00" type="human" speed="12.52" pos="263.65" lane="e0_0" slope="0.00"/>
    </timestep>
    <timestep time="28.00">
        <vehicle id="background.0" x="269.90" y="-1.60" angle="90.00" type="human" speed="12.49" pos="269.90" lane="e0_0" slope="0.00"/>
    </timestep>
    <timestep time="28.50">
        <vehicle id="background.0" x="276.32" y="-1.60" angle="90.00" type="human" speed="12.85" pos="276.32" lane="e0_0" slope="0.00"/>
    </timestep>
    <timestep time="29.00">
        <vehicle id="background.0" x="282.56" y="-1.60" angle="90.00" type="human" speed="12.46" pos="282.56" lane="e0_0" slope="0.00"/>
    </timestep>
    <timestep time="29.50">
        <vehicle id="background.0" x="288.88" y="-1.60" angle="90.00" type="human" speed="12.64" pos="288.88" lane="e0_0" slope="0.00"/>
        <vehicle id="ego" x="5.10" y="-1.60" angle="90.00" type="ego_glosa_type" speed="0.00" pos="5.10" lane="e0_0" slope="0.00"/>
    </timestep>
    <timestep time="30.00">
        <vehicle id="background.0" x="295.10" y="-1.60" angle="90.00" type="human" speed="12.44" pos="295.10" lane="e0_0" slope="0.00"/>
        <vehicle id="ego" x="5.60" y="-1.60" angle="90.00" type="ego_glosa_type" speed="1.00" pos="5.60" lane="e0_0" slope="0.00"/>
    </timestep>
    <timestep time="30.50">
        <vehicle id="background.0" x="301.35" y="-1.60" angle="90.00" type="human" speed="12.71" pos="1.35" lane="e1_0" slope="0.00"/>
        <vehicle id="ego" x="6.60" y="-1.60" angle="90.00" type="ego_glosa_type" speed="2.00" pos="6.60" lane="e0_0" slope="0.00"/>
    </timestep>
    <timestep time="31.00">
        <vehicle id="background.0" x="307.78" y="-1.60" angle="90.00" type="human" speed="12.86" pos="7.78" lane="e1_0" slope="0.00"/>
        <vehicle id="ego" x="8.10" y="-1.60" angle="90.00" type="ego_glosa_type" speed="3.00" pos="8.10" lane="e0_0" slope="0.00"/>
    </timestep>
    <timestep time="31.50">
        <vehicle id="background.0" x="314.08" y="-1.60" angle="90.00" type="human" speed="12.60" pos="14.08" lane="e1_0" slope="0.00"/>
        <vehicle id="ego" x="10.10" y="-1.60" angle="90.00" type="ego_glosa_type" speed="4.00" pos="10.10" lane="e0_0" slope="0.00"/>
    </timestep>
    <timestep time="32.00">
        <vehicle id="background.0" x="320.40" y="-1.60" angle="90.00" type="human" speed="12.63" pos="20.40" lane="e1_0" slope="0.00"/>
        <vehicle id="ego" x="12.48" y="-1.60" angle="90.00" type="ego_glosa_type" speed="4.75" pos="12.48" lane="e0_0" slope="0.00"/>
    </timestep>
    <timestep time="32.50">
        <vehicle id="background.0" x="326.72" y="-1.60" angle="90.00" type="human" speed="12.64" pos="26.72" lane="e1_0" slope="0.00"/>
        <vehicle id="ego" x="14.85" y="-1.60" angle="90.00" type="ego_glosa_type" speed="4.76" pos="14.85" lane="e0_0" slope="0.00"/>
    </timestep>
    <timestep time="33.00">
        <vehicle id="background.0" x="332.94" y="-1.60" angle="90.00" type="human" speed="12.45" pos="32.94" lane="e1_0" slope="0.00"/>
        <vehicle id="ego" x="17.23" y="-1.60" angle="90.00" type="ego_glosa_type" speed="4.76" pos="17.23" lane="e0_0" slope="0.00"/>
    </timestep>
    <timestep time="33.50">
        <vehicle id="background.0" x="339.27" y="-1.60" angle="90.00" type="human" speed="12.65" pos="39.27" lane="e1_0" slope="0.00"/>
        <vehicle id="ego" x="19.61" y="-1.60" angle="90.00" type="ego_glosa_type" speed="4.76" pos="19.61" lane="e0_0" slope="0.00"/>
    </timestep>
    <timestep time="34.00">
        <vehicle id="background.0" x="345.60" y="-1.60" angle="90.00" type="human" speed="12.67" pos="45.60" lane="e1_0" slope="0.00"/>
        <vehicle id="background.1" x="5.10" y="-1.60" angle="90.00" type="human" speed="7.01" pos="5.10" lane="e0_0" slope="0.00"/>
        <vehicle id="ego" x="21.99" y="-1.60" angle="90.00" type="ego_glosa_type" speed="4.76" pos="21.99" lane="e0_0" slope="0.00"/>
    </timestep>
    <timestep time="34.50">
        <vehicle id="background.1" x="8.44" y="-1.60" angle="90.00" type="human" speed="6.67" pos="8.44" lane="e0_0" slope="0.00"/>
        <vehicle id="ego" x="24.36" y="-1.60" angle="90.00" type="ego_glosa_type" speed="4.76" pos="24.36" lane="e0_0" slope="0.00"/>
    </timestep>
    <timestep time="35.00">
        <vehicle id="background.1" x="11.67" y="-1.60" angle="90.00" type="human" speed="6.47" pos="11.67" lane="e0_0" slope="0.00"/>
        <vehicle id="ego" x="26.74" y="-1.60" angle="90.00" type="ego_glosa_type" speed="4.76" pos="26.74" lane="e0_0" slope="0.00"/>
    </timestep>
    <timestep time="35.50">
        <vehicle id="background.1" x="14.74" y="-1.60" angle="90.00" type="human" speed="6.14" pos="14.74" lane="e0_0" slope="0.00"/>
        <vehicle id="ego" x="29.12" y="-1.60" angle="90.00" type="ego_glosa_type" speed="4.76" pos="29.12" lane="e0_0" slope="0.00"/>
    </timestep>
    <timestep time="36.00">
        <vehicle id="background.1" x="17.44" y="-1.60" angle="90.00" type="human" speed="5.39" pos="17.44" lane="e0_0" slope="0.00"/>
        <vehicle id="background.2" x="5.10" y="-1.60" angle="90.00" type="human" speed="5.12" pos="5.10" lane="e0_0" slope="0.00"/>
        <vehicle id="ego" x="31.50" y="-1.60" angle="90.00" type="ego_glosa_type" speed="4.76" pos="31.50" lane="e0_0" slope="0.00"/>
    </timestep>
    <timestep time="36.50">
        <vehicle id="background.1" x="20.12" y="-1.60" angle="90.00" type="human" speed="5.37" pos="20.12" lane="e0_0" slope="0.00"/>
        <vehicle id="background.2" x="7.54" y="-1.60" angle="90.00" type="human" speed="4.89" pos="7.54" lane="e0_0" slope="0.00"/>
        <vehicle id="ego" x="33.87" y="-1.60" angle="90.00" type="ego_glosa_type" speed="4.76" pos="33.87" lane="e0_0" slope="0.00"/>
    </timestep>
    <timestep time="37.00">
        <vehicle id="background.1" x="22.86" y="-1.60" angle="90.00" type="human" speed="5.48" pos="22.86" lane="e0_0" slope="0.00"/>
        <vehicle id="background.2" x="10.04" y="-1.60" angle="90.00" type="human" speed="5.00" pos="10.04" lane="e0_0" slope="0.00"/>
        <vehicle id="ego" x="36.25" y="-1.60" angle="90.00" type="ego_glosa_type" speed="4.76" pos="36.25" lane="e0_0" slope="0.00"/>
    </timestep>
    <timestep time="37.50">
        <vehicle id="background.1" x="25.28" y="-1.60" angle="90.00" type="human" speed="4.83" pos="25.28" lane="e0_0" slope="0.00"/>
        <vehicle id="background.2" x="12.66" y="-1.60" angle="90.00" type="human" speed="5.23" pos="12.66" lane="e0_0" slope="0.00"/>
        <vehicle id="ego" x="38.63" y="-1.60" angle="90.00" type="ego_glosa_type" speed="4.76" pos="38.63" lane="e0_0" slope="0.00"/>
    </timestep>
    <timestep time="38.00">
        <vehicle id="background.1" x="27.82" y="-1.60" angle="90.00" type="human" speed="5.08" pos="27.82" lane="e0_0" slope="0.00"/>
        <vehicle id="background.2" x="15.11" y="-1.60" angle="90.00" type="human" speed="4.91" pos="15.11" lane="e0_0" slope="0.00"/>
        <vehicle id="ego" x="41.01" y="-1.60" angle="90.00" type="ego_glosa_type" speed="4.76" pos="41.01" lane="e0_0" slope="0.00"/>
    </timestep>
    <timestep time="38.50">
        <vehicle id="background.1" x="30.27" y="-1.60" angle="90.00" type="human" speed="4.91" pos="30.27" lane="e0_0" slope="0.00"/>
        <vehicle id="background.2" x="17.55" y="-1.60" angle="90.00" type="human" speed="4.87" pos="17.55" lane="e0_0" slope="0.00"/>
        <vehicle id="ego" x="43.38" y="-1.60" angle="90.00" type="ego_glosa_type" speed="4.76" pos="43.38" lane="e0_0" slope="0.00"/>
    </timestep>
    <timestep time="39.00">
        <vehicle id="background.1" x="32.67" y="-1.60" angle="90.00" type="human" speed="4.80" pos="32.67" lane="e0_0" slope="0.00"/>
        <vehicle id="background.2" x="19.90" y="-1.60" angle="90.00" type="human" speed="4.70" pos="19.90" lane="e0_0" slope="0.00"/>
        <vehicle id="ego" x="45.76" y="-1.60" angle="90.00" type="ego_glosa_type" speed="4.76" pos="45.76" lane="e0_0" slope="0.00"/>
    </timestep>
    <timestep time="39.50">
        <vehicle id="background.1" x="35.07" y="-1.60" angle="90.00" type="human" speed="4.79" pos="35.07" lane="e0_0" slope="0.00"/>
        <vehicle id="background.2" x="22.23" y="-1.60" angle="90.00" type="human" speed="4.66" pos="22.23" lane="e0_0" slope="0.00"/>
        <vehicle id="ego" x="48.14" y="-1.60" angle="90.00" type="ego_glosa_type" speed="4.76" pos="48.14" lane="e0_0" slope="0.00"/>
    </timestep>
    <timestep time="40.00">
        <vehicle id="background.1" x="37.58" y="-1.60" angle="90.00" type="human" speed="5.02" pos="37.58" lane="e0_0" slope="0.00"/>
        <vehicle id="background.2" x="24.70" y="-1.60" angle="90.00" type="human" speed="4.95" pos="24.70" lane="e0_0" slope="0.00"/>
        <vehicle id="ego" x="50.52" y="-1.60" angle="90.00" type="ego_glosa_type" speed="4.76" pos="50.52" lane="e0_0" slope="0.00"/>
    </timestep>
    <timestep time="40.50">
        <vehicle id="background.1" x="39.95" y="-1.60" angle="90.00" type="human" speed="4.75" pos="39.95" lane="e0_0" slope="0.00"/>
        <vehicle id="background.2" x="27.23" y="-1.60" angle="90.00" type="human" speed="5.06" pos="27.23" lane="e0_0" slope="0.00"/>
        <vehicle id="ego" x="52.89" y="-1.60" angle="90.00" type="ego_glosa_type" speed="4.76" pos="52.89" lane="e0_0" slope="0.00"/>
    </timestep>
    <timestep time="41.00">
        <vehicle id="background.1" x="42.32" y="-1.60" angle="90.00" type="human" speed="4.74" pos="42.32" lane="e0_0" slope="0.00"/>
        <vehicle id="background.2" x="29.64" y="-1.60" angle="90.00" type="human" speed="4.81" pos="29.64" lane="e0_0" slope="0.00"/>
        <vehicle id="ego" x="55.27" y="-1.60" angle="90.00" type="ego_glosa_type" speed="4.76" pos="55.27" lane="e0_0" slope="0.00"/>
    </timestep>
    <timestep time="41.50">
        <vehicle id="background.1" x="44.67" y="-1.60" angle="90.00" type="human" speed="4.71" pos="44.67" lane="e0_0" slope="0.00"/>
        <vehicle id="background.2" x="32.08" y="-1.60" angle="90.00" type="human" speed="4.87" pos="32.08" lane="e0_0" slope="0.00"/>
        <vehicle id="ego" x="57.65" y="-1.60" angle="90.00" type="ego_glosa_type" speed="4.76" pos="57.65" lane="e0_0" slope="0.00"/>
    </timestep>
    <timestep time="42.00">
        <vehicle id="background.1" x="47.07" y="-1.60" angle="90.00" type="human" speed="4.80" pos="47.07" lane="e0_0" slope="0.00"/>
        <vehicle id="background.2" x="34.47" y="-1.60" angle="90.00" type="human" speed="4.80" pos="34.47" lane="e0_0" slope="0.00"/>
        <vehicle id="ego" x="60.03" y="-1.60" angle="90.00" type="ego_glosa_type" speed="4.76" pos="60.03" lane="e0_0" slope="0.00"/>
    </timestep>
    <timestep time="42.50">
        <vehicle id="background.1" x="49.40" y="-1.60" angle="90.00" type="human" speed="4.67" pos="49.40" lane="e0_0" slope="0.00"/>
        <vehicle id="background.2" x="36.75" y="-1.60" angle="90.00" type="human" speed="4.56" pos="36.75" lane="e0_0" slope="0.00"/>
        <vehicle id="ego" x="62.41" y="-1.60" angle="90.00" type="ego_glosa_type" speed="4.76" pos="62.41" lane="e0_0" slope="0.00"/>
    </timestep>
    <timestep time="43.00">
        <vehicle id="background.1" x="51.90" y="-1.60" angle="90.00" type="human" speed="5.00" pos="51.90" lane="e0_0" slope="0.00"/>
        <vehicle id="background.2" x="39.01" y="-1.60" angle="90.00" type="human" speed="4.52" pos="39.01" lane="e0_0" slope="0.00"/>
        <vehicle id="ego" x="64.78" y="-1.60" angle="90.00" type="ego_glosa_type" speed="4.76" pos="64.78" lane="e0_0" slope="0.00"/>
    </timestep>
    <timestep time="43.50">
        <vehicle id="background.1" x="54.26" y="-1.60" angle="90.00" type="human" speed="4.72" pos="54.26" lane="e0_0" slope="0.00"/>
        <vehicle id="background.2" x="41.49" y="-1.60" angle="90.00" type="human" speed="4.95" pos="41.49" lane="e0_0" slope="0.00"/>
        <vehicle id="ego" x="67.16" y="-1.60" angle="90.00" type="ego_glosa_type" speed="4.76" pos="67.16" lane="e0_0" slope="0.00"/>
    </timestep>
    <timestep time="44.00">
        <vehicle id="background.1" x="56.72" y="-1.60" angle="90.00" type="human" speed="4.91" pos="56.72" lane="e0_0" slope="0.00"/>
        <vehicle id="background.2" x="43.93" y="-1.60" angle="90.00" type="human" speed="4.88" pos="43.93" lane="e0_0" slope="0.00"/>
        <vehicle id="ego" x="69.54" y="-1.60" angle="90.00" type="ego_glosa_type" speed="4.76" pos="69.54" lane="e0_0" slope="0.00"/>
    </timestep>
    <timestep time="44.50">
        <vehicle id="background.1" x="58.99" y="-1.60" angle="90.00" type="human" speed="4.55" pos="58.99" lane="e0_0" slope="0.00"/>
        <vehicle id="background.2" x="46.45" y="-1.60" angle="90.00" type="human" speed="5.05" pos="46.45" lane="e0_0" slope="0.00"/>
        <vehicle id="ego" x="71.92" y="-1.60" angle="90.00" type="ego_glosa_type" speed="4.76" pos="71.92" lane="e0_0" slope="0.00"/>
    </timestep>
    <timestep time="45.00">
        <vehicle id="background.1" x="61.53" y="-1.60" angle="90.00" type="human" speed="5.07" pos="61.53" lane="e0_0" slope="0.00"/>
        <vehicle id="background.2" x="48.62" y="-1.60" angle="90.00" type="human" speed="4.33" pos="48.62" lane="e0_0" slope="0.00"/>
        <vehicle id="ego" x="74.29" y="-1.60" angle="90.00" type="ego_glosa_type" speed="4.76" pos="74.29" lane="e0_0" slope="0.00"/>
    </timestep>
    <timestep time="45.50">
        <vehicle id="background.1" x="63.82" y="-1.60" angle="90.00" type="human" speed="4.59" pos="63.82" lane="e0_0" slope="0.00"/>
        <vehicle id="background.2" x="51.20" y="-1.60" angle="90.00" type="human" speed="5.17" pos="51.20" lane="e0_0" slope="0.00"/>
        <vehicle id="ego" x="76.50" y="-1.60" angle="90.00" type="ego_glosa_type" speed="4.42" pos="76.50" lane="e0_0" slope="0.00"/>
    </timestep>
    <timestep time="46.00">
        <vehicle id="background.1" x="66.15" y="-1.60" angle="90.00" type="human" speed="4.65" pos="66.15" lane="e0_0" slope="0.00"/>
        <vehicle id="background.2" x="53.50" y="-1.60" angle="90.00" type="human" speed="4.60" pos="53.50" lane="e0_0" slope="0.00"/>
        <vehicle id="ego" x="78.71" y="-1.60" angle="90.00" type="ego_glosa_type" speed="4.42" pos="78.71" lane="e0_0" slope="0.00"/>
    </timestep>
    <timestep time="46.50">
        <vehicle id="background.1" x="68.49" y="-1.60" angle="90.00" type="human" speed="4.69" pos="68.49" lane="e0_0" slope="0.00"/>
        <vehicle id="background.2" x="55.92" y="-1.60" angle="90.00" type="human" speed="4.84" pos="55.92" lane="e0_0" slope="0.00"/>
        <vehicle id="ego" x="80.93" y="-1.60" angle="90.00" type="ego_glosa_type" speed="4.42" pos="80.93" lane="e0_0" slope="0.00"/>
    </timestep>
    <timestep time="47.00">
        <vehicle id="background.1" x="70.68" y="-1.60" angle="90.00" type="human" speed="4.36" pos="70.68" lane="e0_0" slope="0.00"/>
        <vehicle id="background.2" x="58.15" y="-1.60" angle="90.00" type="human" speed="4.47" pos="58.15" lane="e0_0" slope="0.00"/>
        <vehicle id="ego" x="83.14" y="-1.60" angle="90.00" type="ego_glosa_type" speed="4.42" pos="83.14" lane="e0_0" slope="0.00"/>
    </timestep>
    <timestep time="47.50">
        <vehicle id="background.1" x="72.80" y="-1.60" angle="90.00" type="human" speed="4.25" pos="72.80" lane="e0_0" slope="0.00"/>
        <vehicle id="background.2" x="60.33" y="-1.60" angle="90.00" type="human" speed="4.36" pos="60.33" lane="e0_0" slope="0.00"/>
        <vehicle id="ego" x="85.35" y="-1.60" angle="90.00" type="ego_glosa_type" speed="4.42" pos="85.35" lane="e0_0" slope="0.00"/>
    </timestep>
    <timestep time="48.00">
        <vehicle id="background.1" x="75.07" y="-1.60" angle="90.00" type="human" speed="4.53" pos="75.07" lane="e0_0" slope="0.00"/>
        <vehicle id="background.2" x="62.58" y="-1.60" angle="90.00" type="human" speed="4.49" pos="62.58" lane="e0_0" slope="0.00"/>
        <vehicle id="ego" x="87.56" y="-1.60" angle="90.00" type="ego_glosa_type" speed="4.42" pos="87.56" lane="e0_0" slope="0.00"/>
    </timestep>
    <timestep time="48.50">
        <vehicle id="background.1" x="77.29" y="-1.60" angle="90.00" type="human" speed="4.44" pos="77.29" lane="e0_0" slope="0.00"/>
        <vehicle id="background.2" x="64.90" y="-1.60" angle="90.00" type="human" speed="4.64" pos="64.90" lane="e0_0" slope="0.00"/>
        <vehicle id="ego" x="89.77" y="-1.60" angle="90.00" type="ego_glosa_type" speed="4.42" pos="89.77" lane="e0_0" slope="0.00"/>
    </timestep>
    <timestep time="49.00">
        <vehicle id="background.1" x="79.62" y="-1.60" angle="90.00" type="human" speed="4.66" pos="79.62" lane="e0_0" slope="0.00"/>
        <vehicle id="background.2" x="67.21" y="-1.60" angle="90.00" type="human" speed="4.62" pos="67.21" lane="e0_0" slope="0.00"/>
        <vehicle id="ego" x="91.98" y="-1.60" angle="90.00" type="ego_glosa_type" speed="4.42" pos="91.98" lane="e0_0" slope="0.00"/>
    </timestep>
    <timestep time="49.50">
        <vehicle id="background.1" x="81.76" y="-1.60" angle="90.00" type="human" speed="4.28" pos="81.76" lane="e0_0" slope="0.00"/>
        <vehicle id="background.2" x="69.44" y="-1.60" angle="90.00" type="human" speed="4.45" pos="69.44" lane="e0_0" slope="0.00"/>
        <vehicle id="ego" x="94.19" y="-1.60" angle="90.00" type="ego_glosa_type" speed="4.42" pos="94.19" lane="e0_0" slope="0.00"/>
    </timestep>
    <timestep time="50.00">
        <vehicle id="background.1" x="84.02" y="-1.60" angle="90.00" type="human" speed="4.53" pos="84.02" lane="e0_0" slope="0.00"/>
        <vehicle id="background.2" x="71.52" y="-1.60" angle="90.00" type="human" speed="4.16" pos="71.52" lane="e0_0" slope="0.00"/>
        <vehicle id="ego" x="96.40" y="-1.60" angle="90.00" type="ego_glosa_type" speed="4.42" pos="96.40" lane="e0_0" slope="0.00"/>
    </timestep>
    <timestep time="50.50">
        <vehicle id="background.1" x="86.35" y="-1.60" angle="90.00" type="human" speed="4.65" pos="86.35" lane="e0_0" slope="0.00"/>
        <vehicle id="background.2" x="73.70" y="-1.60" angle="90.00" type="human" speed="4.37" pos="73.70" lane="e0_0" slope="0.00"/>
        <vehicle id="ego" x="98.62" y="-1.60" angle="90.00" type="ego_glosa_type" speed="4.42" pos="98.62" lane="e0_0" slope="0.00"/>
    </timestep>
    <timestep time="51.00">
        <vehicle id="background.1" x="88.53" y="-1.60" angle="90.00" type="human" speed="4.38" pos="88.53" lane="e0_0" slope="0.00"/>
        <vehicle id="background.2" x="75.94" y="-1.60" angle="90.00" type="human" speed="4.47" pos="75.94" lane="e0_0" slope="0.00"/>
        <vehicle id="ego" x="100.83" y="-1.60" angle="90.00" type="ego_glosa_type" speed="4.42" pos="100.83" lane="e0_0" slope="0.00"/>
    </timestep>
    <timestep time="51.50">
        <vehicle id="background.1" x="90.65" y="-1.60" angle="90.00" type="human" speed="4.22" pos="90.65" lane="e0_0" slope="0.00"/>
        <vehicle id="background.2" x="78.29" y="-1.60" angle="90.00" type="human" speed="4.71" pos="78.29" lane="e0_0" slope="0.00"/>
        <vehicle id="ego" x="103.04" y="-1.60" angle="90.00" type="ego_glosa_type" speed="4.42" pos="103.04" lane="e0_0" slope="0.00"/>
    </timestep>
    <timestep time="52.00">
        <vehicle id="background.1" x="92.74" y="-1.60" angle="90.00" type="human" speed="4.19" pos="92.74" lane="e0_0" slope="0.00"/>
        <vehicle id="background.2" x="80.54" y="-1.60" angle="90.00" type="human" speed="4.49" pos="80.54" lane="e0_0" slope="0.00"/>
        <vehicle id="ego" x="105.25" y="-1.60" angle="90.00" type="ego_glosa_type" speed="4.42" pos="105.25" lane="e0_0" slope="0.00"/>
    </timestep>
    <timestep time="52.50">
        <vehicle id="background.1" x="94.99" y="-1.60" angle="90.00" type="human" speed="4.51" pos="94.99" lane="e0_0" slope="0.00"/>
        <vehicle id="background.2" x="82.75" y="-1.60" angle="90.00" type="human" speed="4.42" pos="82.75" lane="e0_0" slope="0.00"/>
        <vehicle id="ego" x="107.46" y="-1.60" angle="90.00" type="ego_glosa_type" speed="4.42" pos="107.46" lane="e0_0" slope="0.00"/>
    </timestep>
    <timestep time="53.00">
        <vehicle id="background.1" x="97.19" y="-1.60" angle="90.00" type="human" speed="4.38" pos="97.19" lane="e0_0" slope="0.00"/>
        <vehicle id="background.2" x="85.01" y="-1.60" angle="90.00" type="human" speed="4.53" pos="85.01" lane="e0_0" slope="0.00"/>
        <vehicle id="ego" x="109.67" y="-1.60" angle="90.00" type="ego_glosa_type" speed="4.42" pos="109.67" lane="e0_0" slope="0.00"/>
    </timestep>
    <timestep time="53.50">
        <vehicle id="background.1" x="99.54" y="-1.60" angle="90.00" type="human" speed="4.71" pos="99.54" lane="e0_0" slope="0.00"/>
        <vehicle id="background.2" x="87.28" y="-1.60" angle="90.00" type="human" speed="4.55" pos="87.28" lane="e0_0" slope="0.00"/>
        <vehicle id="ego" x="111.88" y="-1.60" angle="90.00" type="ego_glosa_type" speed="4.42" pos="111.88" lane="e0_0" slope="0.00"/>
    </timestep>
    <timestep time="54.00">