<?xml version="1.0" encoding="UTF-8"?>

<!-- generated on 2026-05-14 17:06:45 by Eclipse SUMO sumo Version 1.24.0
<sumoConfiguration xmlns:xsi="http://www.w3.org/2001/XMLSchema-instance" xsi:noNamespaceSchemaLocation="http://sumo.dlr.de/xsd/sumoConfiguration.xsd">

    <input>
        <net-file value="scenarios/simple_arterial/simple_arterial.net.xml"/>
        <route-files value="scenarios/simple_arterial/simple_arterial_glosa.rou.xml"/>
        <additional-files value="scenarios/simple_arterial/simple_arterial.tls.xml"/>
    </input>

    <output>
        <fcd-output value="runs/fcd_expert_glosa/episode_00073_seed_115.fcd.xml"/>
    </output>

    <time>
        <begin value="0"/>
        <end value="900"/>
        <step-length value="0.5"/>
    </time>

    <report>
        <no-warnings value="true"/>
    </report>

    <traci_server>
        <remote-port value="37703"/>
    </traci_server>

    <random_number>
        <seed value="115"/>
    </random_number>

</sumoConfiguration>
-->

<fcd-export xmlns:xsi="http://www.w3.org/2001/XMLSchema-instance" xsi:noNamespaceSchemaLocation="http://sumo.dlr.de/xsd/fcd_file.xsd">
    <timestep time="0.00"/>
    <timestep time="0.50"/>
    <timestep time="1.00"/>
    <timestep time="1.50"/>
    <timestep time="2.00"/>
    <timestep time="2.50"/>
    <timestep time="3.00"/>
    <timestep time="3.50">
        <vehicle id="background.0" x="5.10" y="-1.60" angle="90.00" type="human" speed="12.62" pos="5.10" lane="e0_0" slope="0.00"/>
    </timestep>
    <timestep time="4.00">
        <vehicle id="background.0" x="11.32" y="-1.60" angle="90.00" type="human" speed="12.44" pos="11.32" lane="e0_0" slope="0.00"/>
    </timestep>
    <timestep time="4.50">
        <vehicle id="background.0" x="17.49" y="-1.60" angle="90.00" type="human" speed="12.34" pos="17.49" lane="e0_0" slope="0.00"/>
    </timestep>
    <timestep time="5.00">
        <vehicle id="background.0" x="23.71" y="-1.60" angle="90.00" type="human" speed="12.45" pos="23.71" lane="e0_0" slope="0.00"/>
    </timestep>
    <timestep time="5.50">
        <vehicle id="background.0" x="29.78" y="-1.60" angle="90.00" type="human" speed="12.13" pos="29.78" lane="e0_0" slope="0.00"/>
        <vehicle id="background.1" x="5.10" y="-1.60" angle="90.00" type="human" speed="13.56" pos="5.10" lane="e0_0" slope="0.00"/>
    </timestep>
    <timestep time="6.00">
        <vehicle id="background.0" x="35.86" y="-1.60" angle="90.00" type="human" speed="12.16" pos="35.86" lane="e0_0" slope="0.00"/>
        <vehicle id="background.1" x="11.75" y="-1.60" angle="90.00" type="human" speed="13.31" pos="11.75" lane="e0_0" slope="0.00"/>
    </timestep>
    <timestep time="6.50">
        <vehicle id="background.0" x="42.16" y="-1.60" angle="90.00" type="human" speed="12.61" pos="42.16" lane="e0_0" slope="0.00"/>
        <vehicle id="background.1" x="18.36" y="-1.60" angle="90.00" type="human" speed="13.22" pos="18.36" lane="e0_0" slope="0.00"/>
    </timestep>
    <timestep time="7.00">
        <vehicle id="background.0" x="48.47" y="-1.60" angle="90.00" type="human" speed="12.62" pos="48.47" lane="e0_0" slope="0.00"/>
        <vehicle id="background.1" x="25.09" y="-1.60" angle="90.00" type="human" speed="13.45" pos="25.09" lane="e0_0" slope="0.00"/>
    </timestep>
    <timestep time="7.50">
        <vehicle id="background.0" x="54.59" y="-1.60" angle="90.00" type="human" speed="12.23" pos="54.59" lane="e0_0" slope="0.00"/>
        <vehicle id="background.1" x="31.71" y="-1.60" angle="90.00" type="human" speed="13.24" pos="31.71" lane="e0_0" slope="0.00"/>
    </timestep>
    <timestep time="8.00">
        <vehicle id="background.0" x="60.89" y="-1.60" angle="90.00" type="human" speed="12.60" pos="60.89" lane="e0_0" slope="0.00"/>
        <vehicle id="background.1" x="38.25" y="-1.60" angle="90.00" type="human" speed="13.09" pos="38.25" lane="e0_0" slope="0.00"/>
    </timestep>
    <timestep time="8.50">
        <vehicle id="background.0" x="67.08" y="-1.60" angle="90.00" type="human" speed="12.39" pos="67.08" lane="e0_0" slope="0.00"/>
        <vehicle id="background.1" x="44.89" y="-1.60" angle="90.00" type="human" speed="13.28" pos="44.89" lane="e0_0" slope="0.00"/>
    </timestep>
    <timestep time="9.00">
        <vehicle id="background.0" x="73.31" y="-1.60" angle="90.00" type="human" speed="12.44" pos="73.31" lane="e0_0" slope="0.00"/>
        <vehicle id="background.1" x="51.22" y="-1.60" angle="90.00" type="human" speed="12.66" pos="51.22" lane="e0_0" slope="0.00"/>
    </timestep>
    <timestep time="9.50">
        <vehicle id="background.0" x="79.37" y="-1.60" angle="90.00" type="human" speed="12.13" pos="79.37" lane="e0_0" slope="0.00"/>
        <vehicle id="background.1" x="57.56" y="-1.60" angle="90.00" type="human" speed="12.69" pos="57.56" lane="e0_0" slope="0.00"/>
    </timestep>
    <timestep time="10.00">
        <vehicle id="background.0" x="85.63" y="-1.60" angle="90.00" type="human" speed="12.52" pos="85.63" lane="e0_0" slope="0.00"/>
        <vehicle id="background.1" x="63.75" y="-1.60" angle="90.00" type="human" speed="12.37" pos="63.75" lane="e0_0" slope="0.00"/>
    </timestep>
    <timestep time="10.50">
        <vehicle id="background.0" x="91.72" y="-1.60" angle="90.00" type="human" speed="12.17" pos="91.72" lane="e0_0" slope="0.00"/>
        <vehicle id="background.1" x="70.27" y="-1.60" angle="90.00" type="human" speed="13.05" pos="70.27" lane="e0_0" slope="0.00"/>
    </timestep>
    <timestep time="11.00">
        <vehicle id="background.0" x="97.91" y="-1.60" angle="90.00" type="human" speed="12.40" pos="97.91" lane="e0_0" slope="0.00"/>
        <vehicle id="background.1" x="76.60" y="-1.60" angle="90.00" type="human" speed="12.65" pos="76.60" lane="e0_0" slope="0.00"/>
    </timestep>
    <timestep time="11.50">
        <vehicle id="background.0" x="104.03" y="-1.60" angle="90.00" type="human" speed="12.24" pos="104.03" lane="e0_0" slope="0.00"/>
        <vehicle id="background.1" x="82.90" y="-1.60" angle="90.00" type="human" speed="12.60" pos="82.90" lane="e0_0" slope="0.00"/>
    </timestep>
    <timestep time="12.00">
        <vehicle id="background.0" x="110.34" y="-1.60" angle="90.00" type="human" speed="12.61" pos="110.34" lane="e0_0" slope="0.00"/>
        <vehicle id="background.1" x="89.04" y="-1.60" angle="90.00" type="human" speed="12.29" pos="89.04" lane="e0_0" slope="0.00"/>
    </timestep>
    <timestep time="12.50">
        <vehicle id="background.0" x="116.55" y="-1.60" angle="90.00" type="human" speed="12.42" pos="116.55" lane="e0_0" slope="0.00"/>
        <vehicle id="background.1" x="95.44" y="-1.60" angle="90.00" type="human" speed="12.80" pos="95.44" lane="e0_0" slope="0.00"/>
    </timestep>
    <timestep time="13.00">
        <vehicle id="background.0" x="122.85" y="-1.60" angle="90.00" type="human" speed="12.59" pos="122.85" lane="e0_0" slope="0.00"/>
        <vehicle id="background.1" x="101.68" y="-1.60" angle="90.00" type="human" speed="12.48" pos="101.68" lane="e0_0" slope="0.00"/>
    </timestep>
    <timestep time="13.50">
        <vehicle id="background.0" x="129.08" y="-1.60" angle="90.00" type="human" speed="12.48" pos="129.08" lane="e0_0" slope="0.00"/>
        <vehicle id="background.1" x="108.03" y="-1.60" angle="90.00" type="human" speed="12.71" pos="108.03" lane="e0_0" slope="0.00"/>
    </timestep>
    <timestep time="14.00">
        <vehicle id="background.0" x="135.15" y="-1.60" angle="90.00" type="human" speed="12.13" pos="135.15" lane="e0_0" slope="0.00"/>
        <vehicle id="background.1" x="114.32" y="-1.60" angle="90.00" type="human" speed="12.57" pos="114.32" lane="e0_0" slope="0.00"/>
    </timestep>
    <timestep time="14.50">
        <vehicle id="background.0" x="141.27" y="-1.60" angle="90.00" type="human" speed="12.25" pos="141.27" lane="e0_0" slope="0.00"/>
        <vehicle id="background.1" x="120.32" y="-1.60" angle="90.00" type="human" speed="12.01" pos="120.32" lane="e0_0" slope="0.00"/>
    </timestep>
    <timestep time="15.00">
        <vehicle id="background.0" x="147.38" y="-1.60" angle="90.00" type="human" speed="12.21" pos="147.38" lane="e0_0" slope="0.00"/>
        <vehicle id="background.1" x="126.51" y="-1.60" angle="90.00" type="human" speed="12.39" pos="126.51" lane="e0_0" slope="0.00"/>
    </timestep>
    <timestep time="15.50">
        <vehicle id="background.0" x="153.54" y="-1.60" angle="90.00" type="human" speed="12.32" pos="153.54" lane="e0_0" slope="0.00"/>
        <vehicle id="background.1" x="132.65" y="-1.60" angle="90.00" type="human" speed="12.27" pos="132.65" lane="e0_0" slope="0.00"/>
    </timestep>
    <timestep time="16.00">
        <vehicle id="background.0" x="159.62" y="-1.60" angle="90.00" type="human" speed="12.15" pos="159.62" lane="e0_0" slope="0.00"/>
        <vehicle id="background.1" x="138.87" y="-1.60" angle="90.00" type="human" speed="12.43" pos="138.87" lane="e0_0" slope="0.00"/>
    </timestep>
    <timestep time="16.50">
        <vehicle id="background.0" x="165.68" y="-1.60" angle="90.00" type="human" speed="12.13" pos="165.68" lane="e0_0" slope="0.00"/>
        <vehicle id="background.1" x="144.93" y="-1.60" angle="90.00" type="human" speed="12.13" pos="144.93" lane="e0_0" slope="0.00"/>
    </timestep>
    <timestep time="17.00">
        <vehicle id="background.0" x="171.79" y="-1.60" angle="90.00" type="human" speed="12.23" pos="171.79" lane="e0_0" slope="0.00"/>
        <vehicle id="background.1" x="151.08" y="-1.60" angle="90.00" type="human" speed="12.30" pos="151.08" lane="e0_0" slope="0.00"/>
    </timestep>
    <timestep time="17.50">
        <vehicle id="background.0" x="178.06" y="-1.60" angle="90.00" type="human" speed="12.53" pos="178.06" lane="e0_0" slope="0.00"/>
        <vehicle id="background.1" x="157.09" y="-1.60" angle="90.00" type="human" speed="12.02" pos="157.09" lane="e0_0" slope="0.00"/>
    </timestep>
    <timestep time="18.00">
        <vehicle id="background.0" x="184.31" y="-1.60" angle="90.00" type="human" speed="12.51" pos="184.31" lane="e0_0" slope="0.00"/>
        <vehicle id="background.1" x="163.42" y="-1.60" angle="90.00" type="human" speed="12.66" pos="163.42" lane="e0_0" slope="0.00"/>
    </timestep>
    <timestep time="18.50">
        <vehicle id="background.0" x="190.57" y="-1.60" angle="90.00" type="human" speed="12.51" pos="190.57" lane="e0_0" slope="0.00"/>
        <vehicle id="background.1" x="169.65" y="-1.60" angle="90.00" type="human" speed="12.46" pos="169.65" lane="e0_0" slope="0.00"/>
    </timestep>
    <timestep time="19.00">
        <vehicle id="background.0" x="196.83" y="-1.60" angle="90.00" type="human" speed="12.51" pos="196.83" lane="e0_0" slope="0.00"/>
        <vehicle id="background.1" x="176.02" y="-1.60" angle="90.00" type="human" speed="12.73" pos="176.02" lane="e0_0" slope="0.00"/>
    </timestep>
    <timestep time="19.50">
        <vehicle id="background.0" x="203.09" y="-1.60" angle="90.00" type="human" speed="12.53" pos="203.09" lane="e0_0" slope="0.00"/>
        <vehicle id="background.1" x="182.26" y="-1.60" angle="90.00" type="human" speed="12.49" pos="182.26" lane="e0_0" slope="0.00"/>
    </timestep>
    <timestep time="20.00">
        <vehicle id="background.0" x="209.26" y="-1.60" angle="90.00" type="human" speed="12.35" pos="209.26" lane="e0_0" slope="0.00"/>
        <vehicle id="background.1" x="188.42" y="-1.60" angle="90.00" type="human" speed="12.31" pos="188.42" lane="e0_0" slope="0.00"/>
    </timestep>
    <timestep time="20.50">
        <vehicle id="background.0" x="215.50" y="-1.60" angle="90.00" type="human" speed="12.47" pos="215.50" lane="e0_0" slope="0.00"/>
        <vehicle id="background.1" x="194.56" y="-1.60" angle="90.00" type="human" speed="12.28" pos="194.56" lane="e0_0" slope="0.00"/>
    </timestep>
    <timestep time="21.00">
        <vehicle id="background.0" x="221.62" y="-1.60" angle="90.00" type="human" speed="12.24" pos="221.62" lane="e0_0" slope="0.00"/>
        <vehicle id="background.1" x="200.89" y="-1.60" angle="90.00" type="human" speed="12.65" pos="200.89" lane="e0_0" slope="0.00"/>
    </timestep>
    <timestep time="21.50">
        <vehicle id="background.0" x="227.87" y="-1.60" angle="90.00" type="human" speed="12.50" pos="227.87" lane="e0_0" slope="0.00"/>
        <vehicle id="background.1" x="206.90" y="-1.60" angle="90.00" type="human" speed="12.02" pos="206.90" lane="e0_0" slope="0.00"/>
    </timestep>
    <timestep time="22.00">
        <vehicle id="background.0" x="234.15" y="-1.60" angle="90.00" type="human" speed="12.55" pos="234.15" lane="e0_0" slope="0.00"/>
        <vehicle id="background.1" x="213.22" y="-1.60" angle="90.00" type="human" speed="12.64" pos="213.22" lane="e0_0" slope="0.00"/>
    </timestep>
    <timestep time="22.50">
        <vehicle id="background.0" x="240.42" y="-1.60" angle="90.00" type="human" speed="12.55" pos="240.42" lane="e0_0" slope="0.00"/>
        <vehicle id="background.1" x="219.52" y="-1.60" angle="90.00" type="human" speed="12.60" pos="219.52" lane="e0_0" slope="0.00"/>
    </timestep>
    <timestep time="23.00">
        <vehicle id="background.0" x="246.68" y="-1.60" angle="90.00" type="human" speed="12.52" pos="246.68" lane="e0_0" slope="0.00"/>
        <vehicle id="background.1" x="225.88" y="-1.60" angle="90.00" type="human" speed="12.72" pos="225.88" lane="e0_0" slope="0.00"/>
    </timestep>
    <timestep time="23.50">
        <vehicle id="background.0" x="252.95" y="-1.60" angle="90.00" type="human" speed="12.54" pos="252.95" lane="e0_0" slope="0.00"/>
        <vehicle id="background.1" x="232.19" y="-1.60" angle="90.00" type="human" speed="12.62" pos="232.19" lane="e0_0" slope="0.00"/>
    </timestep>
    <timestep time="24.00">
        <vehicle id="background.0" x="259.23" y="-1.60" angle="90.00" type="human" speed="12.56" pos="259.23" lane="e0_0" slope="0.00"/>
        <vehicle id="background.1" x="238.41" y="-1.60" angle="90.00" type="human" speed="12.46" pos="238.41" lane="e0_0" slope="0.00"/>
    </timestep>
    <timestep time="24.50">
        <vehicle id="background.0" x="265.31" y="-1.60" angle="90.00" type="human" speed="12.16" pos="265.31" lane="e0_0" slope="0.00"/>
        <vehicle id="background.1" x="244.70" y="-1.60" angle="90.00" type="human" speed="12.57" pos="244.70" lane="e0_0" slope="0.00"/>
    </timestep>
    <timestep time="25.00">
        <vehicle id="background.0" x="271.48" y="-1.60" angle="90.00" type="human" speed="12.35" pos="271.48" lane="e0_0" slope="0.00"/>
        <vehicle id="background.1" x="250.89" y="-1.60" angle="90.00" type="human" speed="12.37" pos="250.89" lane="e0_0" slope="0.00"/>
    </timestep>
    <timestep time="25.50">
        <vehicle id="background.0" x="277.71" y="-1.60" angle="90.00" type="human" speed="12.46" pos="277.71" lane="e0_0" slope="0.00"/>
        <vehicle id="background.1" x="256.94" y="-1.60" angle="90.00" type="human" speed="12.12" pos="256.94" lane="e0_0" slope="0.00"/>
    </timestep>
    <timestep time="26.00">
        <vehicle id="background.0" x="283.82" y="-1.60" angle="90.00" type="human" speed="12.23" pos="283.82" lane="e0_0" slope="0.00"/>
        <vehicle id="background.1" x="263.23" y="-1.60" angle="90.00" type="human" speed="12.57" pos="263.23" lane="e0_0" slope="0.00"/>
    </timestep>
    <timestep time="26.50">
        <vehicle id="background.0" x="290.07" y="-1.60" angle="90.00" type="human" speed="12.49" pos="290.07" lane="e0_0" slope="0.00"/>
        <vehicle id="background.1" x="269.34" y="-1.60" angle="90.00" type="human" speed="12.23" pos="269.34" lane="e0_0" slope="0.00"/>
    </timestep>
    <timestep time="27.00">
        <vehicle id="background.0" x="296.33" y="-1.60" angle="90.00" type="human" speed="12.52" pos="296.33" lane="e0_0" slope="0.00"/>
        <vehicle id="background.1" x="275.68" y="-1.60" angle="90.00" type="human" speed="12.69" pos="275.68" lane="e0_0" slope="0.00"/>
    </timestep>
    <timestep time="27.50">
        <vehicle id="background.0" x="302.50" y="-1.60" angle="90.00" type="human" speed="12.54" pos="2.50" lane="e1_0" slope="0.00"/>
        <vehicle id="background.1" x="281.98" y="-1.60" angle="90.00" type="human" speed="12.58" pos="281.98" lane="e0_0" slope="0.00"/>
        <vehicle id="background.2" x="5.10" y="-1.60" angle="90.00" type="human" speed="11.01" pos="5.10" lane="e0_0" slope="0.00"/>
    </timestep>
    <timestep time="28.00">
        <vehicle id="background.0" x="308.70" y="-1.60" angle="90.00" type="human" speed="12.40" pos="8.70" lane="e1_0" slope="0.00"/>
        <vehicle id="background.1" x="288.17" y="-1.60" angle="90.00" type="human" speed="12.39" pos="288.17" lane="e0_0" slope="0.00"/>
        <vehicle id="background.2" x="10.37" y="-1.60" angle="90.00" type="human" speed="10.53" pos="10.37" lane="e0_0" slope="0.00"/>
    </timestep>
    <timestep time="28.50">
        <vehicle id="background.0" x="314.81" y="-1.60" angle="90.00" type="human" speed="12.23" pos="14.81" lane="e1_0" slope="0.00"/>
        <vehicle id="background.1" x="294.43" y="-1.60" angle="90.00" type="human" speed="12.52" pos="294.43" lane="e0_0" slope="0.00"/>
        <vehicle id="background.2" x="15.80" y="-1.60" angle="90.00" type="human" speed="10.86" pos="15.80" lane="e0_0" slope="0.00"/>
    </timestep>
    <timestep time="29.00">
        <vehicle id="background.0" x="321.05" y="-1.60" angle="90.00" type="human" speed="12.47" pos="21.05" lane="e1_0" slope="0.00"/>
        <vehicle id="background.1" x="300.41" y="-1.60" angle="90.00" type="human" speed="12.16" pos="0.41" lane="e1_0" slope="0.00"/>
        <vehicle id="background.2" x="21.14" y="-1.60" angle="90.00" type="human" speed="10.69" pos="21.14" lane="e0_0" slope="0.00"/>
    </timestep>
    <timestep time="29.50">
        <vehicle id="background.0" x="327.35" y="-1.60" angle="90.00" type="human" speed="12.61" pos="27.35" lane="e1_0" slope="0.00"/>
        <vehicle id="background.1" x="306.69" y="-1.60" angle="90.00" type="human" speed="12.55" pos="6.69" lane="e1_0" slope="0.00"/>
        <vehicle id="background.2" x="26.50" y="-1.60" angle="90.00" type="human" speed="10.72" pos="26.50" lane="e0_0" slope="0.00"/>
    </timestep>
    <timestep time="30.00">
        <vehicle id="background.0" x="333.62" y="-1.60" angle="90.00" type="human" speed="12.54" pos="33.62" lane="e1_0" slope="0.00"/>
        <vehicle id="background.1" x="312.85" y="-1.60" angle="90.00" type="human" speed="12.32" pos="12.85" lane="e1_0" slope="0.00"/>
        <vehicle id="background.2" x="31.89" y="-1.60" angle="90.00" type="human" speed="10.78" pos="31.89" lane="e0_0" slope="0.00"/>
    </timestep>
    <timestep time="30.50">
        <vehicle id="background.0" x="339.92" y="-1.60" angle="90.00" type="human" speed="12.60" pos="39.92" lane="e1_0" slope="0.00"/>
        <vehicle id="background.1" x="319.17" y="-1.60" angle="90.00" type="human" speed="12.65" pos="19.17" lane="e1_0" slope="0.00"/>
        <vehicle id="background.2" x="37.26" y="-1.60" angle="90.00" type="human" speed="10.74" pos="37.26" lane="e0_0" slope="0.00"/>
    </timestep>
    <timestep time="31.00">
        <vehicle id="background.0" x="345.99" y="-1.60" angle="90.00" type="human" speed="12.13" pos="45.99" lane="e1_0" slope="0.00"/>
        <vehicle id="background.1" x="325.34" y="-1.60" angle="90.00" type="human" speed="12.32" pos="25.34" lane="e1_0" slope="0.00"/>
        <vehicle id="background.2" x="42.66" y="-1.60" angle="90.00" type="human" speed="10.79" pos="42.66" lane="e0_0" slope="0.00"/>
    </timestep>
    <timestep time="31.50">
        <vehicle id="background.1" x="331.54" y="-1.60" angle="90.00" type="human" speed="12.40" pos="31.54" lane="e1_0" slope="0.00"/>
        <vehicle id="background.2" x="48.00" y="-1.60" angle="90.00" type="human" speed="10.67" pos="48.00" lane="e0_0" slope="0.00"/>
    </timestep>
    <timestep time="32.00">
        <vehicle id="background.1" x="338.11" y="-1.60" angle="90.00" type="human" speed="13.16" pos="38.11" lane="e1_0" slope="0.00"/>
        <vehicle id="background.2" x="53.39" y="-1.60" angle="90.00" type="human" speed="10.79" pos="53.39" lane="e0_0" slope="0.00"/>
    </timestep>
    <timestep time="32.50">
        <vehicle id="background.1" x="344.87" y="-1.60" angle="90.00" type="human" speed="13.51" pos="44.87" lane="e1_0" slope="0.00"/>
        <vehicle id="background.2" x="58.72" y="-1.60" angle="90.00" type="human" speed="10.66" pos="58.72" lane="e0_0" slope="0.00"/>
    </timestep>
    <timestep time="33.00">
        <vehicle id="background.2" x="64.20" y="-1.60" angle="90.00" type="human" speed="10.97" pos="64.20" lane="e0_0" slope="0.00"/>
    </timestep>
    <timestep time="33.50">
        <vehicle id="background.2" x="69.60" y="-1.60" angle="90.00" type="human" speed="10.79" pos="69.60" lane="e0_0" slope="0.00"/>
    </timestep>
    <timestep time="34.00">
        <vehicle id="background.2" x="74.94" y="-1.60" angle="90.00" type="human" speed="10.67" pos="74.94" lane="e0_0" slope="0.00"/>
    </timestep>
    <timestep time="34.50">
        <vehicle id="background.2" x="80.25" y="-1.60" angle="90.00" type="human" speed="10.62" pos="80.25" lane="e0_0" slope="0.00"/>
    </timestep>
    <timestep time="35.00">
        <vehicle id="background.2" x="85.75" y="-1.60" angle="90.00" type="human" speed="11.01" pos="85.75" lane="e0_0" slope="0.00"/>
    </timestep>
    <timestep time="35.50">
        <vehicle id="background.2" x="91.12" y="-1.60" angle="90.00" type="human" speed="10.74" pos="91.12" lane="e0_0" slope="0.00"/>
    </timestep>
    <timestep time="36.00">
        <vehicle id="background.2" x="96.48" y="-1.60" angle="90.00" type="human" speed="10.72" pos="96.48" lane="e0_0" slope="0.00"/>
    </timestep>
    <timestep time="36.50">
        <vehicle id="background.2" x="101.88" y="-1.60" angle="90.00" type="human" speed="10.81" pos="101.88" lane="e0_0" slope="0.00"/>
    </timestep>
    <timestep time="37.00">
        <vehicle id="background.2" x="107.18" y="-1.60" angle="90.00" type="human" speed="10.59" pos="107.18" lane="e0_0" slope="0.00"/>
    </timestep>
    <timestep time="37.50">
        <vehicle id="background.2" x="112.68" y="-1.60" angle="90.00" type="human" speed="11.00" pos="112.68" lane="e0_0" slope="0.00"/>
    </timestep>
    <timestep time="38.00">
        <vehicle id="background.2" x="118.12" y="-1.60" angle="90.00" type="human" speed="10.89" pos="118.12" lane="e0_0" slope="0.00"/>
    </timestep>
    <timestep time="38.50">
        <vehicle id="background.2" x="123.52" y="-1.60" angle="90.00" type="human" speed="10.80" pos="123.52" lane="e0_0" slope="0.00"/>
    </timestep>
    <timestep time="39.00">
        <vehicle id="background.2" x="129.00" y="-1.60" angle="90.00" type="human" speed="10.95" pos="129.00" lane="e0_0" slope="0.00"/>
    </timestep>
    <timestep time="39.50">
        <vehicle id="background.2" x="134.33" y="-1.60" angle="90.00" type="human" speed="10.67" pos="134.33" lane="e0_0" slope="0.00"/>
    </timestep>
    <timestep time="40.00">
        <vehicle id="background.2" x="139.64" y="-1.60" angle="90.00" type="human" speed="10.61" pos="139.64" lane="e0_0" slope="0.00"/>
    </timestep>
    <timestep time="40.50">
        <vehicle id="background.2" x="144.89" y="-1.60" angle="90.00" type="human" speed="10.52" pos="144.89" lane="e0_0" slope="0.00"/>
    </timestep>
    <timestep time="41.00">
        <vehicle id="background.2" x="150.16" y="-1.60" angle="90.00" type="human" speed="10.53" pos="150.16" lane="e0_0" slope="0.00"/>
    </timestep>
    <timestep time="41.50">
        <vehicle id="background.2" x="155.47" y="-1.60" angle="90.00" type="human" speed="10.62" pos="155.47" lane="e0_0" slope="0.00"/>
    </timestep>
    <timestep time="42.00">
        <vehicle id="background.2" x="160.93" y="-1.60" angle="90.00" type="human" speed="10.92" pos="160.93" lane="e0_0" slope="0.00"/>
    </timestep>
    <timestep time="42.50">
        <vehicle id="background.2" x="166.33" y="-1.60" angle="90.00" type="human" speed="10.80" pos="166.33" lane="e0_0" slope="0.00"/>
    </timestep>
    <timestep time="43.00">
        <vehicle id="background.2" x="171.78" y="-1.60" angle="90.00" type="human" speed="10.90" pos="171.78" lane="e0_0" slope="0.00"/>
    </timestep>
    <timestep time="43.50">
        <vehicle id="background.2" x="177.11" y="-1.60" angle="90.00" type="human" speed="10.64" pos="177.11" lane="e0_0" slope="0.00"/>
    </timestep>
    <timestep time="44.00">
        <vehicle id="background.2" x="182.40" y="-1.60" angle="90.00" type="human" speed="10.58" pos="182.40" lane="e0_0" slope="0.00"/>
    </timestep>
    <timestep time="44.50">
        <vehicle id="background.2" x="187.82" y="-1.60" angle="90.00" type="human" speed="10.83" pos="187.82" lane="e0_0" slope="0.00"/>
    </timestep>
    <timestep time="45.00">
        <vehicle id="background.2" x="193.27" y="-1.60" angle="90.00" type="human" speed="10.91" pos="193.27" lane="e0_0" slope="0.00"/>
    </timestep>
    <timestep time="45.50">
        <vehicle id="background.2" x="198.73" y="-1.60" angle="90.00" type="human" speed="10.92" pos="198.73" lane="e0_0" slope="0.00"/>
    </timestep>
    <timestep time="46.00">
        <vehicle id="background.2" x="204.11" y="-1.60" angle="90.00" type="human" speed="10.76" pos="204.11" lane="e0_0" slope="0.00"/>
    </timestep>
    <timestep time="46.50">
        <vehicle id="background.2" x="209.44" y="-1.60" angle="90.00" type="human" speed="10.66" pos="209.44" lane="e0_0" slope="0.00"/>
    </timestep>
    <timestep time="47.00">
        <vehicle id="background.2" x="214.76" y="-1.60" angle="90.00" type="human" speed="10.64" pos="214.76" lane="e0_0" slope="0.00"/>
    </timestep>
    <timestep time="47.50">
        <vehicle id="background.2" x="220.18" y="-1.60" angle="90.00" type="human" speed="10.84" pos="220.18" lane="e0_0" slope="0.00"/>
    </timestep>
    <timestep time="48.00">
        <vehicle id="background.2" x="225.52" y="-1.60" angle="90.00" type="human" speed="10.69" pos="225.52" lane="e0_0" slope="0.00"/>
        <vehicle id="background.3" x="5.10" y="-1.60" angle="90.00" type="human" speed="13.89" pos="5.10" lane="e0_0" slope="0.00"/>
    </timestep>
    <timestep time="48.50">
        <vehicle id="background.2" x="230.98" y="-1.60" angle="90.00" type="human" speed="10.91" pos="230.98" lane="e0_0" slope="0.00"/>
        <vehicle id="background.3" x="11.86" y="-1.60" angle="90.00" type="human" speed="13.51" pos="11.86" lane="e0_0" slope="0.00"/>
    </timestep>
    <timestep time="49.00">
        <vehicle id="background.2" x="236.46" y="-1.60" angle="90.00" type="human" speed="10.97" pos="236.46" lane="e0_0" slope="0.00"/>
        <vehicle id="background.3" x="18.55" y="-1.60" angle="90.00" type="human" speed="13.39" pos="18.55" lane="e0_0" slope="0.00"/>
    </timestep>
    <timestep time="49.50">
        <vehicle id="background.2" x="241.80" y="-1.60" angle="90.00" type="human" speed="10.67" pos="241.80" lane="e0_0" slope="0.00"/>
        <vehicle id="background.3" x="25.46" y="-1.60" angle="90.00" type="human" speed="13.82" pos="25.46" lane="e0_0" slope="0.00"/>
    </timestep>
    <timestep time="50.00">
        <vehicle id="background.2" x="247.26" y="-1.60" angle="90.00" type="human" speed="10.91" pos="247.26" lane="e0_0" slope="0.00"/>
        <vehicle id="background.3" x="32.27" y="-1.60" angle="90.00" type="human" speed="13.62" pos="32.27" lane="e0_0" slope="0.00"/>
    </timestep>
    <timestep time="50.50">
        <vehicle id="background.2" x="252.63" y="-1.60" angle="90.00" type="human" speed="10.75" pos="252.63" lane="e0_0" slope="0.00"/>
        <vehicle id="background.3" x="39.06" y="-1.60" angle="90.00" type="human" speed="13.56" pos="39.06" lane="e0_0" slope="0.00"/>
    </timestep>
    <timestep time="51.00">
        <vehicle id="background.2" x="257.91" y="-1.60" angle="90.00" type="human" speed="10.55" pos="257.91" lane="e0_0" slope="0.00"/>
        <vehicle id="background.3" x="45.85" y="-1.60" angle="90.00" type="human" speed="13.58" pos="45.85" lane="e0_0" slope="0.00"/>
    </timestep>
    <timestep time="51.50">
        <vehicle id="background.2" x="263.18" y="-1.60" angle="90.00" type="human" speed="10.54" pos="263.18" lane="e0_0" slope="0.00"/>
        <vehicle id="background.3" x="52.62" y="-1.60" angle="90.00" type="human" speed="13.54" pos="52.62" lane="e0_0" slope="0.00"/>
    </timestep>
    <timestep time="52.00">
        <vehicle id="background.2" x="268.49" y="-1.60" angle="90.00" type="human" speed="10.61" pos="268.49" lane="e0_0" slope="0.00"/>
        <vehicle id="background.3" x="59.36" y="-1.60" angle="90.00" type="human" speed="13.48" pos="59.36" lane="e0_0" slope="0.00"/>
    </timestep>
    <timestep time="52.50">
        <vehicle id="background.2" x="273.89" y="-1.60" angle="90.00" type="human" speed="10.80" pos="273.89" lane="e0_0" slope="0.00"/>
        <vehicle id="background.3" x="66.23" y="-1.60" angle="90.00" type="human" speed="13.75" pos="66.23" lane="e0_0" slope="0.00"/>
    </timestep>
    <timestep time="53.00">
        <vehicle id="background.2" x="279.23" y="-1.60" angle="90.00" type="human" speed="10.69" pos="279.23" lane="e0_0" slope="0.00"/>
        <vehicle id="background.3" x="73.09" y="-1.60" angle="90.00" type="human" speed="13.71" pos="73.09" lane="e0_0" slope="0.00"/>
    </timestep>
    <timestep time="53.50">
        <vehicle id="background.2" x="284.49" y="-1.60" angle="90.00" type="human" speed="10.52" pos="284.49" lane="e0_0" slope="0.00"/>
        <vehicle id="background.3" x="79.95" y="-1.60" angle="90.00" type="human" speed="13.72" pos="79.95" lane="e0_0" slope="0.00"/>
    </timestep>
    <timestep time="54.00">
        <vehicle id="background.2" x="289.48" y="-1.60" angle="90.00" type="human" speed="9.98" pos="289.48" lane="e0_0" slope="0.00"/>