<?xml version="1.0" encoding="UTF-8"?>

<!-- generated on 2026-05-14 17:05:40 by Eclipse SUMO sumo Version 1.24.0
<sumoConfiguration xmlns:xsi="http://www.w3.org/2001/XMLSchema-instance" xsi:noNamespaceSchemaLocation="http://sumo.dlr.de/xsd/sumoConfiguration.xsd">

    <input>
        <net-file value="scenarios/simple_arterial/simple_arterial.net.xml"/>
        <route-files value="scenarios/simple_arterial/simple_arterial_glosa.rou.xml"/>
        <additional-files value="scenarios/simple_arterial/simple_arterial.tls.xml"/>
    </input>

    <output>
        <fcd-output value="runs/fcd_expert_glosa/episode_00017_seed_59.fcd.xml"/>
    </output>

    <time>
        <begin value="0"/>
        <end value="900"/>
        <step-length value="0.5"/>
    </time>

    <report>
        <no-warnings value="true"/>
    </report>

    <traci_server>
        <remote-port value="37703"/>
    </traci_server>

    <random_number>
        <seed value="59"/>
    </random_number>

</sumoConfiguration>
-->

<fcd-export xmlns:xsi="http://www.w3.org/2001/XMLSchema-instance" xsi:noNamespaceSchemaLocation="http://sumo.dlr.de/xsd/fcd_file.xsd">
    <timestep time="0.00"/>
    <timestep time="0.50"/>
    <timestep time="1.00"/>
    <timestep time="1.50"/>
    <timestep time="2.00"/>
    <timestep time="2.50"/>
    <timestep time="3.00"/>
    <timestep time="3.50"/>
    <timestep time="4.00"/>
    <timestep time="4.50"/>
    <timestep time="5.00"/>
    <timestep time="5.50"/>
    <timestep time="6.00"/>
    <timestep time="6.50"/>
    <timestep time="7.00"/>
    <timestep time="7.50"/>
    <timestep time="8.00"/>
    <timestep time="8.50"/>
    <timestep time="9.00"/>
    <timestep time="9.50"/>
    <timestep time="10.00"/>
    <timestep time="10.50"/>
    <timestep time="11.00"/>
    <timestep time="11.50"/>
    <timestep time="12.00"/>
    <timestep time="12.50"/>
    <timestep time="13.00"/>
    <timestep time="13.50"/>
    <timestep time="14.00"/>
    <timestep time="14.50"/>
    <timestep time="15.00"/>
    <timestep time="15.50"/>
    <timestep time="16.00"/>
    <timestep time="16.50"/>
    <timestep time="17.00"/>
    <timestep time="17.50"/>
    <timestep time="18.00"/>
    <timestep time="18.50"/>
    <timestep time="19.00"/>
    <timestep time="19.50"/>
    <timestep time="20.00"/>
    <timestep time="20.50"/>
    <timestep time="21.00"/>
    <timestep time="21.50"/>
    <timestep time="22.00"/>
    <timestep time="22.50"/>
    <timestep time="23.00"/>
    <timestep time="23.50"/>
    <timestep time="24.00"/>
    <timestep time="24.50"/>
    <timestep time="25.00"/>
    <timestep time="25.50"/>
    <timestep time="26.00"/>
    <timestep time="26.50"/>
    <timestep time="27.00"/>
    <timestep time="27.50"/>
    <timestep time="28.00"/>
    <timestep time="28.50"/>
    <timestep time="29.00"/>
    <timestep time="29.50"/>
    <timestep time="30.00"/>
    <timestep time="30.50"/>
    <timestep time="31.00"/>
    <timestep time="31.50"/>
    <timestep time="32.00"/>
    <timestep time="32.50"/>
    <timestep time="33.00"/>
    <timestep time="33.50"/>
    <timestep time="34.00"/>
    <timestep time="34.50"/>
    <timestep time="35.00"/>
    <timestep time="35.50"/>
    <timestep time="36.00"/>
    <timestep time="36.50"/>
    <timestep time="37.00"/>
    <timestep time="37.50"/>
    <timestep time="38.00"/>
    <timestep time="38.50"/>
    <timestep time="39.00"/>
    <timestep time="39.50"/>
    <timestep time="40.00"/>
    <timestep time="40.50"/>
    <timestep time="41.00"/>
    <timestep time="41.50"/>
    <timestep time="42.00"/>
    <timestep time="42.50"/>
    <timestep time="43.00"/>
    <timestep time="43.50"/>
    <timestep time="44.00"/>
    <timestep time="44.50"/>
    <timestep time="45.00"/>
    <timestep time="45.50"/>
    <timestep time="46.00"/>
    <timestep time="46.50"/>
    <timestep time="47.00"/>
    <timestep time="47.50"/>
    <timestep time="48.00"/>
    <timestep time="48.50"/>
    <timestep time="49.00"/>
    <timestep time="49.50"/>
    <timestep time="50.00"/>
    <timestep time="50.50"/>
    <timestep time="51.00"/>
    <timestep time="51.50"/>
    <timestep time="52.00"/>
    <timestep time="52.50"/>
    <timestep time="53.00">
        <vehicle id="ego" x="5.10" y="-1.60" angle="90.00" type="ego_glosa_type" speed="0.00" pos="5.10" lane="e0_0" slope="0.00"/>
    </timestep>
    <timestep time="53.50">
        <vehicle id="ego" x="5.60" y="-1.60" angle="90.00" type="ego_glosa_type" speed="1.00" pos="5.60" lane="e0_0" slope="0.00"/>
    </timestep>
    <timestep time="54.00">
        <vehicle id="ego" x="6.60" y="-1.60" angle="90.00" type="ego_glosa_type" speed="2.00" pos="6.60" lane="e0_0" slope="0.00"/>
    </timestep>
    <timestep time="54.50">
        <vehicle id="ego" x="8.10" y="-1.60" angle="90.00" type="ego_glosa_type" speed="3.00" pos="8.10" lane="e0_0" slope="0.00"/>
    </timestep>
    <timestep time="55.00">
        <vehicle id="ego" x="10.10" y="-1.60" angle="90.00" type="ego_glosa_type" speed="4.00" pos="10.10" lane="e0_0" slope="0.00"/>
    </timestep>
    <timestep time="55.50">
        <vehicle id="ego" x="12.60" y="-1.60" angle="90.00" type="ego_glosa_type" speed="5.00" pos="12.60" lane="e0_0" slope="0.00"/>
    </timestep>
    <timestep time="56.00">
        <vehicle id="ego" x="15.60" y="-1.60" angle="90.00" type="ego_glosa_type" speed="6.00" pos="15.60" lane="e0_0" slope="0.00"/>
    </timestep>
    <timestep time="56.50">
        <vehicle id="ego" x="19.10" y="-1.60" angle="90.00" type="ego_glosa_type" speed="7.00" pos="19.10" lane="e0_0" slope="0.00"/>
    </timestep>
    <timestep time="57.00">
        <vehicle id="ego" x="23.10" y="-1.60" angle="90.00" type="ego_glosa_type" speed="8.00" pos="23.10" lane="e0_0" slope="0.00"/>
    </timestep>
    <timestep time="57.50">
        <vehicle id="ego" x="27.60" y="-1.60" angle="90.00" type="ego_glosa_type" speed="9.00" pos="27.60" lane="e0_0" slope="0.00"/>
    </timestep>
    <timestep time="58.00">
        <vehicle id="ego" x="32.60" y="-1.60" angle="90.00" type="ego_glosa_type" speed="10.00" pos="32.60" lane="e0_0" slope="0.00"/>
    </timestep>
    <timestep time="58.50">
        <vehicle id="ego" x="38.10" y="-1.60" angle="90.00" type="ego_glosa_type" speed="11.00" pos="38.10" lane="e0_0" slope="0.00"/>
    </timestep>
    <timestep time="59.00">
        <vehicle id="ego" x="44.10" y="-1.60" angle="90.00" type="ego_glosa_type" speed="12.00" pos="44.10" lane="e0_0" slope="0.00"/>
    </timestep>
    <timestep time="59.50">
        <vehicle id="ego" x="50.33" y="-1.60" angle="90.00" type="ego_glosa_type" speed="12.47" pos="50.33" lane="e0_0" slope="0.00"/>
    </timestep>
    <timestep time="60.00">
        <vehicle id="background.0" x="5.10" y="-1.60" angle="90.00" type="human" speed="12.47" pos="5.10" lane="e0_0" slope="0.00"/>
        <vehicle id="ego" x="56.57" y="-1.60" angle="90.00" type="ego_glosa_type" speed="12.47" pos="56.57" lane="e0_0" slope="0.00"/>
    </timestep>
    <timestep time="60.50">
        <vehicle id="background.0" x="11.16" y="-1.60" angle="90.00" type="human" speed="12.12" pos="11.16" lane="e0_0" slope="0.00"/>
        <vehicle id="ego" x="62.80" y="-1.60" angle="90.00" type="ego_glosa_type" speed="12.47" pos="62.80" lane="e0_0" slope="0.00"/>
    </timestep>
    <timestep time="61.00">
        <vehicle id="background.0" x="17.17" y="-1.60" angle="90.00" type="human" speed="12.02" pos="17.17" lane="e0_0" slope="0.00"/>
        <vehicle id="ego" x="69.04" y="-1.60" angle="90.00" type="ego_glosa_type" speed="12.47" pos="69.04" lane="e0_0" slope="0.00"/>
    </timestep>
    <timestep time="61.50">
        <vehicle id="background.0" x="23.19" y="-1.60" angle="90.00" type="human" speed="12.04" pos="23.19" lane="e0_0" slope="0.00"/>
        <vehicle id="ego" x="75.27" y="-1.60" angle="90.00" type="ego_glosa_type" speed="12.47" pos="75.27" lane="e0_0" slope="0.00"/>
    </timestep>
    <timestep time="62.00">
        <vehicle id="background.0" x="29.37" y="-1.60" angle="90.00" type="human" speed="12.38" pos="29.37" lane="e0_0" slope="0.00"/>
        <vehicle id="ego" x="81.50" y="-1.60" angle="90.00" type="ego_glosa_type" speed="12.47" pos="81.50" lane="e0_0" slope="0.00"/>
    </timestep>
    <timestep time="62.50">
        <vehicle id="background.0" x="35.48" y="-1.60" angle="90.00" type="human" speed="12.20" pos="35.48" lane="e0_0" slope="0.00"/>
        <vehicle id="ego" x="87.74" y="-1.60" angle="90.00" type="ego_glosa_type" speed="12.47" pos="87.74" lane="e0_0" slope="0.00"/>
    </timestep>
    <timestep time="63.00">
        <vehicle id="background.0" x="41.47" y="-1.60" angle="90.00" type="human" speed="11.98" pos="41.47" lane="e0_0" slope="0.00"/>
        <vehicle id="ego" x="93.97" y="-1.60" angle="90.00" type="ego_glosa_type" speed="12.47" pos="93.97" lane="e0_0" slope="0.00"/>
    </timestep>
    <timestep time="63.50">
        <vehicle id="background.0" x="47.60" y="-1.60" angle="90.00" type="human" speed="12.27" pos="47.60" lane="e0_0" slope="0.00"/>
        <vehicle id="ego" x="100.20" y="-1.60" angle="90.00" type="ego_glosa_type" speed="12.47" pos="100.20" lane="e0_0" slope="0.00"/>
    </timestep>
    <timestep time="64.00">
        <vehicle id="background.0" x="53.72" y="-1.60" angle="90.00" type="human" speed="12.25" pos="53.72" lane="e0_0" slope="0.00"/>
        <vehicle id="ego" x="106.44" y="-1.60" angle="90.00" type="ego_glosa_type" speed="12.47" pos="106.44" lane="e0_0" slope="0.00"/>
    </timestep>
    <timestep time="64.50">
        <vehicle id="background.0" x="59.73" y="-1.60" angle="90.00" type="human" speed="12.01" pos="59.73" lane="e0_0" slope="0.00"/>
        <vehicle id="ego" x="112.67" y="-1.60" angle="90.00" type="ego_glosa_type" speed="12.47" pos="112.67" lane="e0_0" slope="0.00"/>
    </timestep>
    <timestep time="65.00">
        <vehicle id="background.0" x="65.91" y="-1.60" angle="90.00" type="human" speed="12.37" pos="65.91" lane="e0_0" slope="0.00"/>
        <vehicle id="ego" x="118.91" y="-1.60" angle="90.00" type="ego_glosa_type" speed="12.47" pos="118.91" lane="e0_0" slope="0.00"/>
    </timestep>
    <timestep time="65.50">
        <vehicle id="background.0" x="72.14" y="-1.60" angle="90.00" type="human" speed="12.45" pos="72.14" lane="e0_0" slope="0.00"/>
        <vehicle id="ego" x="125.14" y="-1.60" angle="90.00" type="ego_glosa_type" speed="12.47" pos="125.14" lane="e0_0" slope="0.00"/>
    </timestep>
    <timestep time="66.00">
        <vehicle id="background.0" x="78.29" y="-1.60" angle="90.00" type="human" speed="12.30" pos="78.29" lane="e0_0" slope="0.00"/>
        <vehicle id="ego" x="131.37" y="-1.60" angle="90.00" type="ego_glosa_type" speed="12.47" pos="131.37" lane="e0_0" slope="0.00"/>
    </timestep>
    <timestep time="66.50">
        <vehicle id="background.0" x="84.29" y="-1.60" angle="90.00" type="human" speed="11.99" pos="84.29" lane="e0_0" slope="0.00"/>
        <vehicle id="ego" x="137.61" y="-1.60" angle="90.00" type="ego_glosa_type" speed="12.47" pos="137.61" lane="e0_0" slope="0.00"/>
    </timestep>
    <timestep time="67.00">
        <vehicle id="background.0" x="90.39" y="-1.60" angle="90.00" type="human" speed="12.22" pos="90.39" lane="e0_0" slope="0.00"/>
        <vehicle id="ego" x="143.84" y="-1.60" angle="90.00" type="ego_glosa_type" speed="12.47" pos="143.84" lane="e0_0" slope="0.00"/>
    </timestep>
    <timestep time="67.50">
        <vehicle id="background.0" x="96.52" y="-1.60" angle="90.00" type="human" speed="12.26" pos="96.52" lane="e0_0" slope="0.00"/>
        <vehicle id="ego" x="150.08" y="-1.60" angle="90.00" type="ego_glosa_type" speed="12.47" pos="150.08" lane="e0_0" slope="0.00"/>
    </timestep>
    <timestep time="68.00">
        <vehicle id="background.0" x="102.72" y="-1.60" angle="90.00" type="human" speed="12.40" pos="102.72" lane="e0_0" slope="0.00"/>
        <vehicle id="ego" x="156.31" y="-1.60" angle="90.00" type="ego_glosa_type" speed="12.47" pos="156.31" lane="e0_0" slope="0.00"/>
    </timestep>
    <timestep time="68.50">
        <vehicle id="background.0" x="108.83" y="-1.60" angle="90.00" type="human" speed="12.21" pos="108.83" lane="e0_0" slope="0.00"/>
        <vehicle id="ego" x="162.54" y="-1.60" angle="90.00" type="ego_glosa_type" speed="12.47" pos="162.54" lane="e0_0" slope="0.00"/>
    </timestep>
    <timestep time="69.00">
        <vehicle id="background.0" x="115.05" y="-1.60" angle="90.00" type="human" speed="12.44" pos="115.05" lane="e0_0" slope="0.00"/>
        <vehicle id="ego" x="168.78" y="-1.60" angle="90.00" type="ego_glosa_type" speed="12.47" pos="168.78" lane="e0_0" slope="0.00"/>
    </timestep>
    <timestep time="69.50">
        <vehicle id="background.0" x="121.04" y="-1.60" angle="90.00" type="human" speed="11.99" pos="121.04" lane="e0_0" slope="0.00"/>
        <vehicle id="ego" x="175.01" y="-1.60" angle="90.00" type="ego_glosa_type" speed="12.47" pos="175.01" lane="e0_0" slope="0.00"/>
    </timestep>
    <timestep time="70.00">
        <vehicle id="background.0" x="127.22" y="-1.60" angle="90.00" type="human" speed="12.35" pos="127.22" lane="e0_0" slope="0.00"/>
        <vehicle id="ego" x="181.24" y="-1.60" angle="90.00" type="ego_glosa_type" speed="12.47" pos="181.24" lane="e0_0" slope="0.00"/>
    </timestep>
    <timestep time="70.50">
        <vehicle id="background.0" x="133.27" y="-1.60" angle="90.00" type="human" speed="12.10" pos="133.27" lane="e0_0" slope="0.00"/>
        <vehicle id="ego" x="187.48" y="-1.60" angle="90.00" type="ego_glosa_type" speed="12.47" pos="187.48" lane="e0_0" slope="0.00"/>
    </timestep>
    <timestep time="71.00">
        <vehicle id="background.0" x="139.41" y="-1.60" angle="90.00" type="human" speed="12.29" pos="139.41" lane="e0_0" slope="0.00"/>
        <vehicle id="ego" x="193.71" y="-1.60" angle="90.00" type="ego_glosa_type" speed="12.47" pos="193.71" lane="e0_0" slope="0.00"/>
    </timestep>
    <timestep time="71.50">
        <vehicle id="background.0" x="145.63" y="-1.60" angle="90.00" type="human" speed="12.45" pos="145.63" lane="e0_0" slope="0.00"/>
        <vehicle id="ego" x="199.95" y="-1.60" angle="90.00" type="ego_glosa_type" speed="12.47" pos="199.95" lane="e0_0" slope="0.00"/>
    </timestep>
    <timestep time="72.00">
        <vehicle id="background.0" x="151.82" y="-1.60" angle="90.00" type="human" speed="12.36" pos="151.82" lane="e0_0" slope="0.00"/>
        <vehicle id="ego" x="206.18" y="-1.60" angle="90.00" type="ego_glosa_type" speed="12.47" pos="206.18" lane="e0_0" slope="0.00"/>
    </timestep>
    <timestep time="72.50">
        <vehicle id="background.0" x="157.86" y="-1.60" angle="90.00" type="human" speed="12.08" pos="157.86" lane="e0_0" slope="0.00"/>
        <vehicle id="ego" x="211.29" y="-1.60" angle="90.00" type="ego_glosa_type" speed="10.22" pos="211.29" lane="e0_0" slope="0.00"/>
    </timestep>
    <timestep time="73.00">
        <vehicle id="background.0" x="163.99" y="-1.60" angle="90.00" type="human" speed="12.25" pos="163.99" lane="e0_0" slope="0.00"/>
        <vehicle id="ego" x="215.27" y="-1.60" angle="90.00" type="ego_glosa_type" speed="7.97" pos="215.27" lane="e0_0" slope="0.00"/>
    </timestep>
    <timestep time="73.50">
        <vehicle id="background.0" x="170.09" y="-1.60" angle="90.00" type="human" speed="12.22" pos="170.09" lane="e0_0" slope="0.00"/>
        <vehicle id="ego" x="218.13" y="-1.60" angle="90.00" type="ego_glosa_type" speed="5.72" pos="218.13" lane="e0_0" slope="0.00"/>
    </timestep>
    <timestep time="74.00">
        <vehicle id="background.0" x="176.11" y="-1.60" angle="90.00" type="human" speed="12.02" pos="176.11" lane="e0_0" slope="0.00"/>
        <vehicle id="ego" x="219.86" y="-1.60" angle="90.00" type="ego_glosa_type" speed="3.47" pos="219.86" lane="e0_0" slope="0.00"/>
    </timestep>
    <timestep time="74.50">
        <vehicle id="background.0" x="182.18" y="-1.60" angle="90.00" type="human" speed="12.16" pos="182.18" lane="e0_0" slope="0.00"/>
        <vehicle id="ego" x="221.50" y="-1.60" angle="90.00" type="ego_glosa_type" speed="3.28" pos="221.50" lane="e0_0" slope="0.00"/>
    </timestep>
    <timestep time="75.00">
        <vehicle id="background.0" x="188.29" y="-1.60" angle="90.00" type="human" speed="12.21" pos="188.29" lane="e0_0" slope="0.00"/>
        <vehicle id="ego" x="223.14" y="-1.60" angle="90.00" type="ego_glosa_type" speed="3.28" pos="223.14" lane="e0_0" slope="0.00"/>
    </timestep>
    <timestep time="75.50">
        <vehicle id="background.0" x="194.34" y="-1.60" angle="90.00" type="human" speed="12.10" pos="194.34" lane="e0_0" slope="0.00"/>
        <vehicle id="ego" x="224.78" y="-1.60" angle="90.00" type="ego_glosa_type" speed="3.28" pos="224.78" lane="e0_0" slope="0.00"/>
    </timestep>
    <timestep time="76.00">
        <vehicle id="background.0" x="199.91" y="-1.60" angle="90.00" type="human" speed="11.14" pos="199.91" lane="e0_0" slope="0.00"/>
        <vehicle id="ego" x="226.42" y="-1.60" angle="90.00" type="ego_glosa_type" speed="3.28" pos="226.42" lane="e0_0" slope="0.00"/>
    </timestep>
    <timestep time="76.50">
        <vehicle id="background.0" x="204.93" y="-1.60" angle="90.00" type="human" speed="10.04" pos="204.93" lane="e0_0" slope="0.00"/>
        <vehicle id="ego" x="228.06" y="-1.60" angle="90.00" type="ego_glosa_type" speed="3.28" pos="228.06" lane="e0_0" slope="0.00"/>
    </timestep>
    <timestep time="77.00">
        <vehicle id="background.0" x="209.37" y="-1.60" angle="90.00" type="human" speed="8.88" pos="209.37" lane="e0_0" slope="0.00"/>
        <vehicle id="ego" x="229.70" y="-1.60" angle="90.00" type="ego_glosa_type" speed="3.28" pos="229.70" lane="e0_0" slope="0.00"/>
    </timestep>
    <timestep time="77.50">
        <vehicle id="background.0" x="213.14" y="-1.60" angle="90.00" type="human" speed="7.55" pos="213.14" lane="e0_0" slope="0.00"/>
        <vehicle id="ego" x="231.34" y="-1.60" angle="90.00" type="ego_glosa_type" speed="3.28" pos="231.34" lane="e0_0" slope="0.00"/>
    </timestep>
    <timestep time="78.00">
        <vehicle id="background.0" x="216.52" y="-1.60" angle="90.00" type="human" speed="6.76" pos="216.52" lane="e0_0" slope="0.00"/>
        <vehicle id="ego" x="232.98" y="-1.60" angle="90.00" type="ego_glosa_type" speed="3.28" pos="232.98" lane="e0_0" slope="0.00"/>
    </timestep>
    <timestep time="78.50">
        <vehicle id="background.0" x="219.49" y="-1.60" angle="90.00" type="human" speed="5.94" pos="219.49" lane="e0_0" slope="0.00"/>
        <vehicle id="ego" x="234.62" y="-1.60" angle="90.00" type="ego_glosa_type" speed="3.28" pos="234.62" lane="e0_0" slope="0.00"/>
    </timestep>
    <timestep time="79.00">
        <vehicle id="background.0" x="222.18" y="-1.60" angle="90.00" type="human" speed="5.39" pos="222.18" lane="e0_0" slope="0.00"/>
        <vehicle id="ego" x="236.26" y="-1.60" angle="90.00" type="ego_glosa_type" speed="3.28" pos="236.26" lane="e0_0" slope="0.00"/>
    </timestep>
    <timestep time="79.50">
        <vehicle id="background.0" x="224.70" y="-1.60" angle="90.00" type="human" speed="5.03" pos="224.70" lane="e0_0" slope="0.00"/>
        <vehicle id="ego" x="237.90" y="-1.60" angle="90.00" type="ego_glosa_type" speed="3.28" pos="237.90" lane="e0_0" slope="0.00"/>
    </timestep>
    <timestep time="80.00">
        <vehicle id="background.0" x="226.86" y="-1.60" angle="90.00" type="human" speed="4.31" pos="226.86" lane="e0_0" slope="0.00"/>
        <vehicle id="ego" x="239.54" y="-1.60" angle="90.00" type="ego_glosa_type" speed="3.28" pos="239.54" lane="e0_0" slope="0.00"/>
    </timestep>
    <timestep time="80.50">
        <vehicle id="background.0" x="228.99" y="-1.60" angle="90.00" type="human" speed="4.26" pos="228.99" lane="e0_0" slope="0.00"/>
        <vehicle id="ego" x="241.18" y="-1.60" angle="90.00" type="ego_glosa_type" speed="3.28" pos="241.18" lane="e0_0" slope="0.00"/>
    </timestep>
    <timestep time="81.00">
        <vehicle id="background.0" x="231.02" y="-1.60" angle="90.00" type="human" speed="4.06" pos="231.02" lane="e0_0" slope="0.00"/>
        <vehicle id="ego" x="242.82" y="-1.60" angle="90.00" type="ego_glosa_type" speed="3.28" pos="242.82" lane="e0_0" slope="0.00"/>
    </timestep>
    <timestep time="81.50">
        <vehicle id="background.0" x="232.82" y="-1.60" angle="90.00" type="human" speed="3.61" pos="232.82" lane="e0_0" slope="0.00"/>
        <vehicle id="ego" x="244.46" y="-1.60" angle="90.00" type="ego_glosa_type" speed="3.28" pos="244.46" lane="e0_0" slope="0.00"/>
    </timestep>
    <timestep time="82.00">
        <vehicle id="background.0" x="234.73" y="-1.60" angle="90.00" type="human" speed="3.83" pos="234.73" lane="e0_0" slope="0.00"/>
        <vehicle id="ego" x="246.10" y="-1.60" angle="90.00" type="ego_glosa_type" speed="3.28" pos="246.10" lane="e0_0" slope="0.00"/>
    </timestep>
    <timestep time="82.50">
        <vehicle id="background.0" x="236.49" y="-1.60" angle="90.00" type="human" speed="3.51" pos="236.49" lane="e0_0" slope="0.00"/>
        <vehicle id="ego" x="247.74" y="-1.60" angle="90.00" type="ego_glosa_type" speed="3.28" pos="247.74" lane="e0_0" slope="0.00"/>
    </timestep>
    <timestep time="83.00">
        <vehicle id="background.0" x="238.07" y="-1.60" angle="90.00" type="human" speed="3.17" pos="238.07" lane="e0_0" slope="0.00"/>
        <vehicle id="ego" x="249.38" y="-1.60" angle="90.00" type="ego_glosa_type" speed="3.28" pos="249.38" lane="e0_0" slope="0.00"/>
    </timestep>
    <timestep time="83.50">
        <vehicle id="background.0" x="239.66" y="-1.60" angle="90.00" type="human" speed="3.16" pos="239.66" lane="e0_0" slope="0.00"/>
        <vehicle id="ego" x="251.02" y="-1.60" angle="90.00" type="ego_glosa_type" speed="3.28" pos="251.02" lane="e0_0" slope="0.00"/>
    </timestep>
    <timestep time="84.00">
        <vehicle id="background.0" x="241.36" y="-1.60" angle="90.00" type="human" speed="3.40" pos="241.36" lane="e0_0" slope="0.00"/>
        <vehicle id="ego" x="252.66" y="-1.60" angle="90.00" type="ego_glosa_type" speed="3.28" pos="252.66" lane="e0_0" slope="0.00"/>
    </timestep>
    <timestep time="84.50">
        <vehicle id="background.0" x="243.17" y="-1.60" angle="90.00" type="human" speed="3.63" pos="243.17" lane="e0_0" slope="0.00"/>
        <vehicle id="ego" x="254.30" y="-1.60" angle="90.00" type="ego_glosa_type" speed="3.28" pos="254.30" lane="e0_0" slope="0.00"/>
    </timestep>
    <timestep time="85.00">
        <vehicle id="background.0" x="244.82" y="-1.60" angle="90.00" type="human" speed="3.31" pos="244.82" lane="e0_0" slope="0.00"/>
        <vehicle id="ego" x="255.94" y="-1.60" angle="90.00" type="ego_glosa_type" speed="3.28" pos="255.94" lane="e0_0" slope="0.00"/>
    </timestep>
    <timestep time="85.50">
        <vehicle id="background.0" x="246.48" y="-1.60" angle="90.00" type="human" speed="3.32" pos="246.48" lane="e0_0" slope="0.00"/>
        <vehicle id="ego" x="257.58" y="-1.60" angle="90.00" type="ego_glosa_type" speed="3.28" pos="257.58" lane="e0_0" slope="0.00"/>
    </timestep>
    <timestep time="86.00">
        <vehicle id="background.0" x="248.20" y="-1.60" angle="90.00" type="human" speed="3.45" pos="248.20" lane="e0_0" slope="0.00"/>
        <vehicle id="ego" x="259.22" y="-1.60" angle="90.00" type="ego_glosa_type" speed="3.28" pos="259.22" lane="e0_0" slope="0.00"/>
    </timestep>
    <timestep time="86.50">
        <vehicle id="background.0" x="249.74" y="-1.60" angle="90.00" type="human" speed="3.07" pos="249.74" lane="e0_0" slope="0.00"/>
        <vehicle id="ego" x="260.86" y="-1.60" angle="90.00" type="ego_glosa_type" speed="3.28" pos="260.86" lane="e0_0" slope="0.00"/>
    </timestep>
    <timestep time="87.00">
        <vehicle id="background.0" x="251.37" y="-1.60" angle="90.00" type="human" speed="3.25" pos="251.37" lane="e0_0" slope="0.00"/>
        <vehicle id="ego" x="262.50" y="-1.60" angle="90.00" type="ego_glosa_type" speed="3.28" pos="262.50" lane="e0_0" slope="0.00"/>
    </timestep>
    <timestep time="87.50">
        <vehicle id="background.0" x="252.88" y="-1.60" angle="90.00" type="human" speed="3.03" pos="252.88" lane="e0_0" slope="0.00"/>
        <vehicle id="ego" x="264.14" y="-1.60" angle="90.00" type="ego_glosa_type" speed="3.28" pos="264.14" lane="e0_0" slope="0.00"/>
    </timestep>
    <timestep time="88.00">
        <vehicle id="background.0" x="254.43" y="-1.60" angle="90.00" type="human" speed="3.11" pos="254.43" lane="e0_0" slope="0.00"/>
        <vehicle id="ego" x="265.87" y="-1.60" angle="90.00" type="ego_glosa_type" speed="3.47" pos="265.87" lane="e0_0" slope="0.00"/>
    </timestep>
    <timestep time="88.50">
        <vehicle id="background.0" x="256.16" y="-1.60" angle="90.00" type="human" speed="3.45" pos="256.16" lane="e0_0" slope="0.00"/>
        <vehicle id="ego" x="268.10" y="-1.60" angle="90.00" type="ego_glosa_type" speed="4.47" pos="268.10" lane="e0_0" slope="0.00"/>
    </timestep>
    <timestep time="89.00">
        <vehicle id="background.0" x="258.17" y="-1.60" angle="90.00" type="human" speed="4.02" pos="258.17" lane="e0_0" slope="0.00"/>
        <vehicle id="ego" x="270.84" y="-1.60" angle="90.00" type="ego_glosa_type" speed="5.47" pos="270.84" lane="e0_0" slope="0.00"/>
    </timestep>
    <timestep time="89.50">
        <vehicle id="background.0" x="260.52" y="-1.60" angle="90.00" type="human" speed="4.70" pos="260.52" lane="e0_0" slope="0.00"/>
        <vehicle id="ego" x="274.07" y="-1.60" angle="90.00" type="ego_glosa_type" speed="6.47" pos="274.07" lane="e0_0" slope="0.00"/>
    </timestep>
    <timestep time="90.00">
        <vehicle id="background.0" x="263.17" y="-1.60" angle="90.00" type="human" speed="5.30" pos="263.17" lane="e0_0" slope="0.00"/>
        <vehicle id="ego" x="277.81" y="-1.60" angle="90.00" type="ego_glosa_type" speed="7.47" pos="277.81" lane="e0_0" slope="0.00"/>
    </timestep>
    <timestep time="90.50">
        <vehicle id="background.0" x="266.19" y="-1.60" angle="90.00" type="human" speed="6.04" pos="266.19" lane="e0_0" slope="0.00"/>
        <vehicle id="ego" x="282.04" y="-1.60" angle="90.00" type="ego_glosa_type" speed="8.47" pos="282.04" lane="e0_0" slope="0.00"/>
    </timestep>
    <timestep time="91.00">
        <vehicle id="background.0" x="269.68" y="-1.60" angle="90.00" type="human" speed="6.98" pos="269.68" lane="e0_0" slope="0.00"/>
        <vehicle id="ego" x="286.77" y="-1.60" angle="90.00" type="ego_glosa_type" speed="9.47" pos="286.77" lane="e0_0" slope="0.00"/>
    </timestep>
    <timestep time="91.50">
        <vehicle id="background.0" x="273.61" y="-1.60" angle="90.00" type="human" speed="7.86" pos="273.61" lane="e0_0" slope="0.00"/>
        <vehicle id="background.1" x="5.10" y="-1.60" angle="90.00" type="human" speed="12.83" pos="5.10" lane="e0_0" slope="0.00"/>
        <vehicle id="ego" x="292.01" y="-1.60" angle="90.00" type="ego_glosa_type" speed="10.47" pos="292.01" lane="e0_0" slope="0.00"/>
    </timestep>
    <timestep time="92.00">
        <vehicle id="background.0" x="277.98" y="-1.60" angle="90.00" type="human" speed="8.74" pos="277.98" lane="e0_0" slope="0.00"/>
        <vehicle id="background.1" x="11.38" y="-1.60" angle="90.00" type="human" speed="12.57" pos="11.38" lane="e0_0" slope="0.00"/>
        <vehicle id="ego" x="297.74" y="-1.60" angle="90.00" type="ego_glosa_type" speed="11.47" pos="297.74" lane="e0_0" slope="0.00"/>
    </timestep>
    <timestep time="92.50">
        <vehicle id="background.0" x="282.68" y="-1.60" angle="90.00" type="human" speed="9.40" pos="282.68" lane="e0_0" slope="0.00"/>
        <vehicle id="background.1" x="17.76" y="-1.60" angle="90.00" type="human" speed="12.74" pos="17.76" lane="e0_0" slope="0.00"/>
        <vehicle id="ego" x="303.87" y="-1.60" angle="90.00" type="ego_glosa_type" speed="12.47" pos="3.87" lane="e1_0" slope="0.00"/>
    </timestep>
    <timestep time="93.00">
        <vehicle id="background.0" x="287.67" y="-1.60" angle="90.00" type="human" speed="9.99" pos="287.67" lane="e0_0" slope="0.00"/>
        <vehicle id="background.1" x="23.97" y="-1.60" angle="90.00" type="human" speed="12.43" pos="23.97" lane="e0_0" slope="0.00"/>
        <vehicle id="ego" x="310.11" y="-1.60" angle="90.00" type="ego_glosa_type" speed="12.47" pos="10.11" lane="e1_0" slope="0.00"/>
    </timestep>
    <timestep time="93.50">
        <vehicle id="background.0" x="293.17" y="-1.60" angle="90.00" type="human" speed="10.99" pos="293.17" lane="e0_0" slope="0.00"/>
        <vehicle id="background.1" x="30.36" y="-1.60" angle="90.00" type="human" speed="12.78" pos="30.36" lane="e0_0" slope="0.00"/>
        <vehicle id="ego" x="316.34" y="-1.60" angle="90.00" type="ego_glosa_type" speed="12.47" pos="16.34" lane="e1_0" slope="0.00"/>
    </timestep>
    <timestep time="94.00">
        <vehicle id="background.0" x="299.01" y="-1.60" angle="90.00" type="human" speed="11.69" pos="299.01" lane="e0_0" slope="0.00"/>
        <vehicle id="background.1" x="36.62" y="-1.60" angle="90.00" type="human" speed="12.51" pos="36.62" lane="e0_0" slope="0.00"/>
        <vehicle id="ego" x="322.58" y="-1.60" angle="90.00" type="ego_glosa_type" speed="12.47" pos="22.58" lane="e1_0" slope="0.00"/>
    </timestep>
    <timestep time="94.50">
        <vehicle id="background.0" x="305.03" y="-1.60" angle="90.00" type="human" speed="12.22" pos="5.03" lane="e1_0" slope="0.00"/>
        <vehicle id="background.1" x="42.81" y="-1.60" angle="90.00" type="human" speed="12.38" pos="42.81" lane="e0_0" slope="0.00"/>
        <vehicle id="ego" x="328.81" y="-1.60" angle="90.00" type="ego_glosa_type" speed="12.47" pos="28.81" lane="e1_0" slope="0.00"/>
    </timestep>
    <timestep time="95.00">
        <vehicle id="background.0" x="311.12" y="-1.60" angle="90.00" type="human" speed="12.20" pos="11.12" lane="e1_0" slope="0.00"/>