<?xml version="1.0" encoding="UTF-8"?>

<!-- generated on 2026-05-13 21:24:15 by Eclipse SUMO sumo Version 1.24.0
<sumoConfiguration xmlns:xsi="http://www.w3.org/2001/XMLSchema-instance" xsi:noNamespaceSchemaLocation="http://sumo.dlr.de/xsd/sumoConfiguration.xsd">

    <input>
        <net-file value="scenarios/simple_arterial/simple_arterial.net.xml"/>
        <route-files value="scenarios/simple_arterial/simple_arterial_glosa.rou.xml"/>
        <additional-files value="scenarios/simple_arterial/simple_arterial.tls.xml"/>
    </input>

    <output>
        <fcd-output value="runs/fcd_expert_glosa/episode_00007_seed_49.fcd.xml"/>
    </output>

    <time>
        <begin value="0"/>
        <end value="900"/>
        <step-length value="0.5"/>
    </time>

    <report>
        <no-warnings value="true"/>
    </report>

    <traci_server>
        <remote-port value="27311"/>
    </traci_server>

    <random_number>
        <seed value="49"/>
    </random_number>

</sumoConfiguration>
-->

<fcd-export xmlns:xsi="http://www.w3.org/2001/XMLSchema-instance" xsi:noNamespaceSchemaLocation="http://sumo.dlr.de/xsd/fcd_file.xsd">
    <timestep time="0.00"/>
    <timestep time="0.50"/>
    <timestep time="1.00"/>
    <timestep time="1.50"/>
    <timestep time="2.00"/>
    <timestep time="2.50"/>
    <timestep time="3.00"/>
    <timestep time="3.50"/>
    <timestep time="4.00"/>
    <timestep time="4.50"/>
    <timestep time="5.00"/>
    <timestep time="5.50"/>
    <timestep time="6.00"/>
    <timestep time="6.50"/>
    <timestep time="7.00"/>
    <timestep time="7.50"/>
    <timestep time="8.00"/>
    <timestep time="8.50"/>
    <timestep time="9.00"/>
    <timestep time="9.50"/>
    <timestep time="10.00"/>
    <timestep time="10.50"/>
    <timestep time="11.00"/>
    <timestep time="11.50"/>
    <timestep time="12.00"/>
    <timestep time="12.50">
        <vehicle id="background.0" x="5.10" y="-1.60" angle="90.00" type="human" speed="11.26" pos="5.10" lane="e0_0" slope="0.00"/>
    </timestep>
    <timestep time="13.00">
        <vehicle id="background.0" x="10.61" y="-1.60" angle="90.00" type="human" speed="11.01" pos="10.61" lane="e0_0" slope="0.00"/>
    </timestep>
    <timestep time="13.50">
        <vehicle id="background.0" x="16.20" y="-1.60" angle="90.00" type="human" speed="11.19" pos="16.20" lane="e0_0" slope="0.00"/>
    </timestep>
    <timestep time="14.00">
        <vehicle id="background.0" x="21.78" y="-1.60" angle="90.00" type="human" speed="11.15" pos="21.78" lane="e0_0" slope="0.00"/>
    </timestep>
    <timestep time="14.50">
        <vehicle id="background.0" x="27.39" y="-1.60" angle="90.00" type="human" speed="11.22" pos="27.39" lane="e0_0" slope="0.00"/>
    </timestep>
    <timestep time="15.00">
        <vehicle id="background.0" x="32.95" y="-1.60" angle="90.00" type="human" speed="11.13" pos="32.95" lane="e0_0" slope="0.00"/>
    </timestep>
    <timestep time="15.50">
        <vehicle id="background.0" x="38.43" y="-1.60" angle="90.00" type="human" speed="10.95" pos="38.43" lane="e0_0" slope="0.00"/>
    </timestep>
    <timestep time="16.00">
        <vehicle id="background.0" x="43.96" y="-1.60" angle="90.00" type="human" speed="11.06" pos="43.96" lane="e0_0" slope="0.00"/>
    </timestep>
    <timestep time="16.50">
        <vehicle id="background.0" x="49.58" y="-1.60" angle="90.00" type="human" speed="11.25" pos="49.58" lane="e0_0" slope="0.00"/>
    </timestep>
    <timestep time="17.00">
        <vehicle id="background.0" x="55.12" y="-1.60" angle="90.00" type="human" speed="11.07" pos="55.12" lane="e0_0" slope="0.00"/>
    </timestep>
    <timestep time="17.50">
        <vehicle id="background.0" x="60.71" y="-1.60" angle="90.00" type="human" speed="11.18" pos="60.71" lane="e0_0" slope="0.00"/>
    </timestep>
    <timestep time="18.00">
        <vehicle id="background.0" x="66.09" y="-1.60" angle="90.00" type="human" speed="10.76" pos="66.09" lane="e0_0" slope="0.00"/>
    </timestep>
    <timestep time="18.50">
        <vehicle id="background.0" x="71.48" y="-1.60" angle="90.00" type="human" speed="10.78" pos="71.48" lane="e0_0" slope="0.00"/>
    </timestep>
    <timestep time="19.00">
        <vehicle id="background.0" x="77.01" y="-1.60" angle="90.00" type="human" speed="11.06" pos="77.01" lane="e0_0" slope="0.00"/>
    </timestep>
    <timestep time="19.50">
        <vehicle id="background.0" x="82.44" y="-1.60" angle="90.00" type="human" speed="10.86" pos="82.44" lane="e0_0" slope="0.00"/>
    </timestep>
    <timestep time="20.00">
        <vehicle id="background.0" x="87.88" y="-1.60" angle="90.00" type="human" speed="10.87" pos="87.88" lane="e0_0" slope="0.00"/>
    </timestep>
    <timestep time="20.50">
        <vehicle id="background.0" x="93.44" y="-1.60" angle="90.00" type="human" speed="11.14" pos="93.44" lane="e0_0" slope="0.00"/>
    </timestep>
    <timestep time="21.00">
        <vehicle id="background.0" x="98.88" y="-1.60" angle="90.00" type="human" speed="10.88" pos="98.88" lane="e0_0" slope="0.00"/>
    </timestep>
    <timestep time="21.50">
        <vehicle id="background.0" x="104.43" y="-1.60" angle="90.00" type="human" speed="11.10" pos="104.43" lane="e0_0" slope="0.00"/>
    </timestep>
    <timestep time="22.00">
        <vehicle id="background.0" x="109.98" y="-1.60" angle="90.00" type="human" speed="11.10" pos="109.98" lane="e0_0" slope="0.00"/>
    </timestep>
    <timestep time="22.50">
        <vehicle id="background.0" x="115.50" y="-1.60" angle="90.00" type="human" speed="11.04" pos="115.50" lane="e0_0" slope="0.00"/>
    </timestep>
    <timestep time="23.00">
        <vehicle id="background.0" x="121.05" y="-1.60" angle="90.00" type="human" speed="11.09" pos="121.05" lane="e0_0" slope="0.00"/>
    </timestep>
    <timestep time="23.50">
        <vehicle id="background.0" x="126.64" y="-1.60" angle="90.00" type="human" speed="11.19" pos="126.64" lane="e0_0" slope="0.00"/>
    </timestep>
    <timestep time="24.00">
        <vehicle id="background.0" x="132.18" y="-1.60" angle="90.00" type="human" speed="11.08" pos="132.18" lane="e0_0" slope="0.00"/>
    </timestep>
    <timestep time="24.50">
        <vehicle id="background.0" x="137.67" y="-1.60" angle="90.00" type="human" speed="10.96" pos="137.67" lane="e0_0" slope="0.00"/>
    </timestep>
    <timestep time="25.00">
        <vehicle id="background.0" x="143.26" y="-1.60" angle="90.00" type="human" speed="11.19" pos="143.26" lane="e0_0" slope="0.00"/>
    </timestep>
    <timestep time="25.50">
        <vehicle id="background.0" x="148.64" y="-1.60" angle="90.00" type="human" speed="10.77" pos="148.64" lane="e0_0" slope="0.00"/>
    </timestep>
    <timestep time="26.00">
        <vehicle id="background.0" x="154.03" y="-1.60" angle="90.00" type="human" speed="10.77" pos="154.03" lane="e0_0" slope="0.00"/>
    </timestep>
    <timestep time="26.50">
        <vehicle id="background.0" x="159.64" y="-1.60" angle="90.00" type="human" speed="11.21" pos="159.64" lane="e0_0" slope="0.00"/>
    </timestep>
    <timestep time="27.00">
        <vehicle id="background.0" x="165.04" y="-1.60" angle="90.00" type="human" speed="10.80" pos="165.04" lane="e0_0" slope="0.00"/>
    </timestep>
    <timestep time="27.50">
        <vehicle id="background.0" x="170.60" y="-1.60" angle="90.00" type="human" speed="11.11" pos="170.60" lane="e0_0" slope="0.00"/>
    </timestep>
    <timestep time="28.00">
        <vehicle id="background.0" x="176.09" y="-1.60" angle="90.00" type="human" speed="10.98" pos="176.09" lane="e0_0" slope="0.00"/>
    </timestep>
    <timestep time="28.50">
        <vehicle id="background.0" x="181.66" y="-1.60" angle="90.00" type="human" speed="11.14" pos="181.66" lane="e0_0" slope="0.00"/>
    </timestep>
    <timestep time="29.00">
        <vehicle id="background.0" x="187.21" y="-1.60" angle="90.00" type="human" speed="11.10" pos="187.21" lane="e0_0" slope="0.00"/>
    </timestep>
    <timestep time="29.50">
        <vehicle id="background.0" x="192.71" y="-1.60" angle="90.00" type="human" speed="11.00" pos="192.71" lane="e0_0" slope="0.00"/>
    </timestep>
    <timestep time="30.00">
        <vehicle id="background.0" x="198.11" y="-1.60" angle="90.00" type="human" speed="10.82" pos="198.11" lane="e0_0" slope="0.00"/>
    </timestep>
    <timestep time="30.50">
        <vehicle id="background.0" x="203.73" y="-1.60" angle="90.00" type="human" speed="11.24" pos="203.73" lane="e0_0" slope="0.00"/>
    </timestep>
    <timestep time="31.00">
        <vehicle id="background.0" x="209.19" y="-1.60" angle="90.00" type="human" speed="10.92" pos="209.19" lane="e0_0" slope="0.00"/>
    </timestep>
    <timestep time="31.50">
        <vehicle id="background.0" x="214.76" y="-1.60" angle="90.00" type="human" speed="11.13" pos="214.76" lane="e0_0" slope="0.00"/>
    </timestep>
    <timestep time="32.00">
        <vehicle id="background.0" x="220.29" y="-1.60" angle="90.00" type="human" speed="11.06" pos="220.29" lane="e0_0" slope="0.00"/>
    </timestep>
    <timestep time="32.50">
        <vehicle id="background.0" x="225.75" y="-1.60" angle="90.00" type="human" speed="10.92" pos="225.75" lane="e0_0" slope="0.00"/>
    </timestep>
    <timestep time="33.00">
        <vehicle id="background.0" x="231.25" y="-1.60" angle="90.00" type="human" speed="11.01" pos="231.25" lane="e0_0" slope="0.00"/>
        <vehicle id="ego" x="5.10" y="-1.60" angle="90.00" type="ego_glosa_type" speed="0.00" pos="5.10" lane="e0_0" slope="0.00"/>
    </timestep>
    <timestep time="33.50">
        <vehicle id="background.0" x="236.69" y="-1.60" angle="90.00" type="human" speed="10.86" pos="236.69" lane="e0_0" slope="0.00"/>
        <vehicle id="ego" x="5.60" y="-1.60" angle="90.00" type="ego_glosa_type" speed="1.00" pos="5.60" lane="e0_0" slope="0.00"/>
    </timestep>
    <timestep time="34.00">
        <vehicle id="background.0" x="242.22" y="-1.60" angle="90.00" type="human" speed="11.08" pos="242.22" lane="e0_0" slope="0.00"/>
        <vehicle id="ego" x="6.60" y="-1.60" angle="90.00" type="ego_glosa_type" speed="2.00" pos="6.60" lane="e0_0" slope="0.00"/>
    </timestep>
    <timestep time="34.50">
        <vehicle id="background.0" x="247.83" y="-1.60" angle="90.00" type="human" speed="11.20" pos="247.83" lane="e0_0" slope="0.00"/>
        <vehicle id="ego" x="8.10" y="-1.60" angle="90.00" type="ego_glosa_type" speed="3.00" pos="8.10" lane="e0_0" slope="0.00"/>
    </timestep>
    <timestep time="35.00">
        <vehicle id="background.0" x="253.41" y="-1.60" angle="90.00" type="human" speed="11.18" pos="253.41" lane="e0_0" slope="0.00"/>
        <vehicle id="ego" x="10.10" y="-1.60" angle="90.00" type="ego_glosa_type" speed="4.00" pos="10.10" lane="e0_0" slope="0.00"/>
    </timestep>
    <timestep time="35.50">
        <vehicle id="background.0" x="259.04" y="-1.60" angle="90.00" type="human" speed="11.25" pos="259.04" lane="e0_0" slope="0.00"/>
        <vehicle id="ego" x="12.60" y="-1.60" angle="90.00" type="ego_glosa_type" speed="5.00" pos="12.60" lane="e0_0" slope="0.00"/>
    </timestep>
    <timestep time="36.00">
        <vehicle id="background.0" x="264.47" y="-1.60" angle="90.00" type="human" speed="10.86" pos="264.47" lane="e0_0" slope="0.00"/>
        <vehicle id="ego" x="15.20" y="-1.60" angle="90.00" type="ego_glosa_type" speed="5.20" pos="15.20" lane="e0_0" slope="0.00"/>
    </timestep>
    <timestep time="36.50">
        <vehicle id="background.0" x="270.03" y="-1.60" angle="90.00" type="human" speed="11.12" pos="270.03" lane="e0_0" slope="0.00"/>
        <vehicle id="ego" x="17.80" y="-1.60" angle="90.00" type="ego_glosa_type" speed="5.20" pos="17.80" lane="e0_0" slope="0.00"/>
    </timestep>
    <timestep time="37.00">
        <vehicle id="background.0" x="275.44" y="-1.60" angle="90.00" type="human" speed="10.83" pos="275.44" lane="e0_0" slope="0.00"/>
        <vehicle id="ego" x="20.40" y="-1.60" angle="90.00" type="ego_glosa_type" speed="5.20" pos="20.40" lane="e0_0" slope="0.00"/>
    </timestep>
    <timestep time="37.50">
        <vehicle id="background.0" x="280.94" y="-1.60" angle="90.00" type="human" speed="10.99" pos="280.94" lane="e0_0" slope="0.00"/>
        <vehicle id="background.1" x="5.10" y="-1.60" angle="90.00" type="human" speed="7.59" pos="5.10" lane="e0_0" slope="0.00"/>
        <vehicle id="ego" x="23.00" y="-1.60" angle="90.00" type="ego_glosa_type" speed="5.20" pos="23.00" lane="e0_0" slope="0.00"/>
    </timestep>
    <timestep time="38.00">
        <vehicle id="background.0" x="286.40" y="-1.60" angle="90.00" type="human" speed="10.91" pos="286.40" lane="e0_0" slope="0.00"/>
        <vehicle id="background.1" x="8.88" y="-1.60" angle="90.00" type="human" speed="7.56" pos="8.88" lane="e0_0" slope="0.00"/>
        <vehicle id="ego" x="25.60" y="-1.60" angle="90.00" type="ego_glosa_type" speed="5.20" pos="25.60" lane="e0_0" slope="0.00"/>
    </timestep>
    <timestep time="38.50">
        <vehicle id="background.0" x="291.85" y="-1.60" angle="90.00" type="human" speed="10.90" pos="291.85" lane="e0_0" slope="0.00"/>
        <vehicle id="background.1" x="12.26" y="-1.60" angle="90.00" type="human" speed="6.75" pos="12.26" lane="e0_0" slope="0.00"/>
        <vehicle id="ego" x="28.20" y="-1.60" angle="90.00" type="ego_glosa_type" speed="5.20" pos="28.20" lane="e0_0" slope="0.00"/>
    </timestep>
    <timestep time="39.00">
        <vehicle id="background.0" x="297.43" y="-1.60" angle="90.00" type="human" speed="11.16" pos="297.43" lane="e0_0" slope="0.00"/>
        <vehicle id="background.1" x="15.66" y="-1.60" angle="90.00" type="human" speed="6.80" pos="15.66" lane="e0_0" slope="0.00"/>
        <vehicle id="ego" x="30.80" y="-1.60" angle="90.00" type="ego_glosa_type" speed="5.20" pos="30.80" lane="e0_0" slope="0.00"/>
    </timestep>
    <timestep time="39.50">
        <vehicle id="background.0" x="302.73" y="-1.60" angle="90.00" type="human" speed="10.79" pos="2.73" lane="e1_0" slope="0.00"/>
        <vehicle id="background.1" x="18.77" y="-1.60" angle="90.00" type="human" speed="6.22" pos="18.77" lane="e0_0" slope="0.00"/>
        <vehicle id="ego" x="33.40" y="-1.60" angle="90.00" type="ego_glosa_type" speed="5.20" pos="33.40" lane="e0_0" slope="0.00"/>
    </timestep>
    <timestep time="40.00">
        <vehicle id="background.0" x="308.19" y="-1.60" angle="90.00" type="human" speed="10.92" pos="8.19" lane="e1_0" slope="0.00"/>
        <vehicle id="background.1" x="21.68" y="-1.60" angle="90.00" type="human" speed="5.83" pos="21.68" lane="e0_0" slope="0.00"/>
        <vehicle id="ego" x="36.00" y="-1.60" angle="90.00" type="ego_glosa_type" speed="5.20" pos="36.00" lane="e0_0" slope="0.00"/>
    </timestep>
    <timestep time="40.50">
        <vehicle id="background.0" x="313.73" y="-1.60" angle="90.00" type="human" speed="11.10" pos="13.73" lane="e1_0" slope="0.00"/>
        <vehicle id="background.1" x="24.52" y="-1.60" angle="90.00" type="human" speed="5.69" pos="24.52" lane="e0_0" slope="0.00"/>
        <vehicle id="ego" x="38.60" y="-1.60" angle="90.00" type="ego_glosa_type" speed="5.20" pos="38.60" lane="e0_0" slope="0.00"/>
    </timestep>
    <timestep time="41.00">
        <vehicle id="background.0" x="319.35" y="-1.60" angle="90.00" type="human" speed="11.24" pos="19.35" lane="e1_0" slope="0.00"/>
        <vehicle id="background.1" x="27.32" y="-1.60" angle="90.00" type="human" speed="5.59" pos="27.32" lane="e0_0" slope="0.00"/>
        <vehicle id="ego" x="41.20" y="-1.60" angle="90.00" type="ego_glosa_type" speed="5.20" pos="41.20" lane="e0_0" slope="0.00"/>
    </timestep>
    <timestep time="41.50">
        <vehicle id="background.0" x="324.86" y="-1.60" angle="90.00" type="human" speed="11.00" pos="24.86" lane="e1_0" slope="0.00"/>
        <vehicle id="background.1" x="30.16" y="-1.60" angle="90.00" type="human" speed="5.68" pos="30.16" lane="e0_0" slope="0.00"/>
        <vehicle id="ego" x="43.80" y="-1.60" angle="90.00" type="ego_glosa_type" speed="5.20" pos="43.80" lane="e0_0" slope="0.00"/>
    </timestep>
    <timestep time="42.00">
        <vehicle id="background.0" x="330.40" y="-1.60" angle="90.00" type="human" speed="11.09" pos="30.40" lane="e1_0" slope="0.00"/>
        <vehicle id="background.1" x="32.82" y="-1.60" angle="90.00" type="human" speed="5.33" pos="32.82" lane="e0_0" slope="0.00"/>
        <vehicle id="ego" x="46.40" y="-1.60" angle="90.00" type="ego_glosa_type" speed="5.20" pos="46.40" lane="e0_0" slope="0.00"/>
    </timestep>
    <timestep time="42.50">
        <vehicle id="background.0" x="335.79" y="-1.60" angle="90.00" type="human" speed="10.79" pos="35.79" lane="e1_0" slope="0.00"/>
        <vehicle id="background.1" x="35.42" y="-1.60" angle="90.00" type="human" speed="5.20" pos="35.42" lane="e0_0" slope="0.00"/>
        <vehicle id="ego" x="49.00" y="-1.60" angle="90.00" type="ego_glosa_type" speed="5.20" pos="49.00" lane="e0_0" slope="0.00"/>
    </timestep>
    <timestep time="43.00">
        <vehicle id="background.0" x="341.26" y="-1.60" angle="90.00" type="human" speed="10.94" pos="41.26" lane="e1_0" slope="0.00"/>
        <vehicle id="background.1" x="38.04" y="-1.60" angle="90.00" type="human" speed="5.24" pos="38.04" lane="e0_0" slope="0.00"/>
        <vehicle id="ego" x="51.60" y="-1.60" angle="90.00" type="ego_glosa_type" speed="5.20" pos="51.60" lane="e0_0" slope="0.00"/>
    </timestep>
    <timestep time="43.50">
        <vehicle id="background.0" x="346.75" y="-1.60" angle="90.00" type="human" speed="10.99" pos="46.75" lane="e1_0" slope="0.00"/>
        <vehicle id="background.1" x="40.75" y="-1.60" angle="90.00" type="human" speed="5.41" pos="40.75" lane="e0_0" slope="0.00"/>
        <vehicle id="ego" x="54.20" y="-1.60" angle="90.00" type="ego_glosa_type" speed="5.20" pos="54.20" lane="e0_0" slope="0.00"/>
    </timestep>
    <timestep time="44.00">
        <vehicle id="background.1" x="43.31" y="-1.60" angle="90.00" type="human" speed="5.12" pos="43.31" lane="e0_0" slope="0.00"/>
        <vehicle id="ego" x="56.80" y="-1.60" angle="90.00" type="ego_glosa_type" speed="5.20" pos="56.80" lane="e0_0" slope="0.00"/>
    </timestep>
    <timestep time="44.50">
        <vehicle id="background.1" x="45.91" y="-1.60" angle="90.00" type="human" speed="5.21" pos="45.91" lane="e0_0" slope="0.00"/>
        <vehicle id="ego" x="59.40" y="-1.60" angle="90.00" type="ego_glosa_type" speed="5.20" pos="59.40" lane="e0_0" slope="0.00"/>
    </timestep>
    <timestep time="45.00">
        <vehicle id="background.1" x="48.53" y="-1.60" angle="90.00" type="human" speed="5.23" pos="48.53" lane="e0_0" slope="0.00"/>
        <vehicle id="ego" x="62.00" y="-1.60" angle="90.00" type="ego_glosa_type" speed="5.20" pos="62.00" lane="e0_0" slope="0.00"/>
    </timestep>
    <timestep time="45.50">
        <vehicle id="background.1" x="51.29" y="-1.60" angle="90.00" type="human" speed="5.53" pos="51.29" lane="e0_0" slope="0.00"/>
        <vehicle id="background.2" x="5.10" y="-1.60" angle="90.00" type="human" speed="13.89" pos="5.10" lane="e0_0" slope="0.00"/>
        <vehicle id="ego" x="64.43" y="-1.60" angle="90.00" type="ego_glosa_type" speed="4.84" pos="64.43" lane="e0_0" slope="0.00"/>
    </timestep>
    <timestep time="46.00">
        <vehicle id="background.1" x="53.68" y="-1.60" angle="90.00" type="human" speed="4.78" pos="53.68" lane="e0_0" slope="0.00"/>
        <vehicle id="background.2" x="11.99" y="-1.60" angle="90.00" type="human" speed="13.78" pos="11.99" lane="e0_0" slope="0.00"/>
        <vehicle id="ego" x="66.85" y="-1.60" angle="90.00" type="ego_glosa_type" speed="4.84" pos="66.85" lane="e0_0" slope="0.00"/>
    </timestep>
    <timestep time="46.50">
        <vehicle id="background.1" x="56.13" y="-1.60" angle="90.00" type="human" speed="4.91" pos="56.13" lane="e0_0" slope="0.00"/>
        <vehicle id="background.2" x="18.86" y="-1.60" angle="90.00" type="human" speed="13.74" pos="18.86" lane="e0_0" slope="0.00"/>
        <vehicle id="ego" x="69.27" y="-1.60" angle="90.00" type="ego_glosa_type" speed="4.84" pos="69.27" lane="e0_0" slope="0.00"/>
    </timestep>
    <timestep time="47.00">
        <vehicle id="background.1" x="58.60" y="-1.60" angle="90.00" type="human" speed="4.93" pos="58.60" lane="e0_0" slope="0.00"/>
        <vehicle id="background.2" x="25.66" y="-1.60" angle="90.00" type="human" speed="13.60" pos="25.66" lane="e0_0" slope="0.00"/>
        <vehicle id="ego" x="71.69" y="-1.60" angle="90.00" type="ego_glosa_type" speed="4.84" pos="71.69" lane="e0_0" slope="0.00"/>
    </timestep>
    <timestep time="47.50">
        <vehicle id="background.1" x="60.98" y="-1.60" angle="90.00" type="human" speed="4.76" pos="60.98" lane="e0_0" slope="0.00"/>
        <vehicle id="background.2" x="31.86" y="-1.60" angle="90.00" type="human" speed="12.41" pos="31.86" lane="e0_0" slope="0.00"/>
        <vehicle id="ego" x="74.12" y="-1.60" angle="90.00" type="ego_glosa_type" speed="4.84" pos="74.12" lane="e0_0" slope="0.00"/>
    </timestep>
    <timestep time="48.00">
        <vehicle id="background.1" x="63.39" y="-1.60" angle="90.00" type="human" speed="4.82" pos="63.39" lane="e0_0" slope="0.00"/>
        <vehicle id="background.2" x="37.32" y="-1.60" angle="90.00" type="human" speed="10.90" pos="37.32" lane="e0_0" slope="0.00"/>
        <vehicle id="ego" x="76.54" y="-1.60" angle="90.00" type="ego_glosa_type" speed="4.84" pos="76.54" lane="e0_0" slope="0.00"/>
    </timestep>
    <timestep time="48.50">
        <vehicle id="background.1" x="65.89" y="-1.60" angle="90.00" type="human" speed="4.99" pos="65.89" lane="e0_0" slope="0.00"/>
        <vehicle id="background.2" x="42.47" y="-1.60" angle="90.00" type="human" speed="10.31" pos="42.47" lane="e0_0" slope="0.00"/>
        <vehicle id="ego" x="78.96" y="-1.60" angle="90.00" type="ego_glosa_type" speed="4.84" pos="78.96" lane="e0_0" slope="0.00"/>
    </timestep>
    <timestep time="49.00">
        <vehicle id="background.1" x="68.33" y="-1.60" angle="90.00" type="human" speed="4.88" pos="68.33" lane="e0_0" slope="0.00"/>
        <vehicle id="background.2" x="47.18" y="-1.60" angle="90.00" type="human" speed="9.42" pos="47.18" lane="e0_0" slope="0.00"/>
        <vehicle id="background.3" x="5.10" y="-1.60" angle="90.00" type="human" speed="13.89" pos="5.10" lane="e0_0" slope="0.00"/>
        <vehicle id="ego" x="81.38" y="-1.60" angle="90.00" type="ego_glosa_type" speed="4.84" pos="81.38" lane="e0_0" slope="0.00"/>
    </timestep>
    <timestep time="49.50">
        <vehicle id="background.1" x="70.71" y="-1.60" angle="90.00" type="human" speed="4.77" pos="70.71" lane="e0_0" slope="0.00"/>
        <vehicle id="background.2" x="51.54" y="-1.60" angle="90.00" type="human" speed="8.72" pos="51.54" lane="e0_0" slope="0.00"/>
        <vehicle id="background.3" x="11.94" y="-1.60" angle="90.00" type="human" speed="13.68" pos="11.94" lane="e0_0" slope="0.00"/>
        <vehicle id="ego" x="83.81" y="-1.60" angle="90.00" type="ego_glosa_type" speed="4.84" pos="83.81" lane="e0_0" slope="0.00"/>
    </timestep>
    <timestep time="50.00">
        <vehicle id="background.1" x="73.31" y="-1.60" angle="90.00" type="human" speed="5.19" pos="73.31" lane="e0_0" slope="0.00"/>
        <vehicle id="background.2" x="55.48" y="-1.60" angle="90.00" type="human" speed="7.87" pos="55.48" lane="e0_0" slope="0.00"/>
        <vehicle id="background.3" x="18.88" y="-1.60" angle="90.00" type="human" speed="13.88" pos="18.88" lane="e0_0" slope="0.00"/>
        <vehicle id="ego" x="86.23" y="-1.60" angle="90.00" type="ego_glosa_type" speed="4.84" pos="86.23" lane="e0_0" slope="0.00"/>
    </timestep>
    <timestep time="50.50">
        <vehicle id="background.1" x="75.74" y="-1.60" angle="90.00" type="human" speed="4.87" pos="75.74" lane="e0_0" slope="0.00"/>
        <vehicle id="background.2" x="59.12" y="-1.60" angle="90.00" type="human" speed="7.29" pos="59.12" lane="e0_0" slope="0.00"/>
        <vehicle id="background.3" x="25.74" y="-1.60" angle="90.00" type="human" speed="13.72" pos="25.74" lane="e0_0" slope="0.00"/>
        <vehicle id="ego" x="88.65" y="-1.60" angle="90.00" type="ego_glosa_type" speed="4.84" pos="88.65" lane="e0_0" slope="0.00"/>
    </timestep>
    <timestep time="51.00">
        <vehicle id="background.1" x="78.19" y="-1.60" angle="90.00" type="human" speed="4.89" pos="78.19" lane="e0_0" slope="0.00"/>
        <vehicle id="background.2" x="62.45" y="-1.60" angle="90.00" type="human" speed="6.65" pos="62.45" lane="e0_0" slope="0.00"/>
        <vehicle id="background.3" x="32.28" y="-1.60" angle="90.00" type="human" speed="13.08" pos="32.28" lane="e0_0" slope="0.00"/>
        <vehicle id="ego" x="91.07" y="-1.60" angle="90.00" type="ego_glosa_type" speed="4.84" pos="91.07" lane="e0_0" slope="0.00"/>
    </timestep>
    <timestep time="51.50">
        <vehicle id="background.1" x="80.56" y="-1.60" angle="90.00" type="human" speed="4.75" pos="80.56" lane="e0_0" slope="0.00"/>
        <vehicle id="background.2" x="65.50" y="-1.60" angle="90.00" type="human" speed="6.10" pos="65.50" lane="e0_0" slope="0.00"/>
        <vehicle id="background.3" x="38.22" y="-1.60" angle="90.00" type="human" speed="11.88" pos="38.22" lane="e0_0" slope="0.00"/>
        <vehicle id="ego" x="93.50" y="-1.60" angle="90.00" type="ego_glosa_type" speed="4.84" pos="93.50" lane="e0_0" slope="0.00"/>
    </timestep>
    <timestep time="52.00">
        <vehicle id="background.1" x="83.08" y="-1.60" angle="90.00" type="human" speed="5.04" pos="83.08" lane="e0_0" slope="0.00"/>
        <vehicle id="background.2" x="68.51" y="-1.60" angle="90.00" type="human" speed="6.03" pos="68.51" lane="e0_0" slope="0.00"/>
        <vehicle id="background.3" x="43.78" y="-1.60" angle="90.00" type="human" speed="11.12" pos="43.78" lane="e0_0" slope="0.00"/>
        <vehicle id="ego" x="95.92" y="-1.60" angle="90.00" type="ego_glosa_type" speed="4.84" pos="95.92" lane="e0_0" slope="0.00"/>
    </timestep>
    <timestep time="52.50">
        <vehicle id="background.1" x="85.61" y="-1.60" angle="90.00" type="human" speed="5.05" pos="85.61" lane="e0_0" slope="0.00"/>
        <vehicle id="background.2" x="71.30" y="-1.60" angle="90.00" type="human" speed="5.57" pos="71.30" lane="e0_0" slope="0.00"/>
        <vehicle id="background.3" x="48.77" y="-1.60" angle="90.00" type="human" speed="9.98" pos="48.77" lane="e0_0" slope="0.00"/>
        <vehicle id="ego" x="98.34" y="-1.60" angle="90.00" type="ego_glosa_type" speed="4.84" pos="98.34" lane="e0_0" slope="0.00"/>
    </timestep>
    <timestep time="53.00">
        <vehicle id="background.1" x="87.98" y="-1.60" angle="90.00" type="human" speed="4.73" pos="87.98" lane="e0_0" slope="0.00"/>
        <vehicle id="background.2" x="74.09" y="-1.60" angle="90.00" type="human" speed="5.57" pos="74.09" lane="e0_0" slope="0.00"/>
        <vehicle id="background.3" x="53.37" y="-1.60" angle="90.00" type="human" speed="9.19" pos="53.37" lane="e0_0" slope="0.00"/>
        <vehicle id="background.4" x="5.10" y="-1.60" angle="90.00" type="human" speed="13.89" pos="5.10" lane="e0_0" slope="0.00"/>
        <vehicle id="ego" x="100.76" y="-1.60" angle="90.00" type="ego_glosa_type" speed="4.84" pos="100.76" lane="e0_0" slope="0.00"/>
    </timestep>
    <timestep time="53.50">
        <vehicle id="background.1" x="90.48" y="-1.60" angle="90.00" type="human" speed="5.01" pos="90.48" lane="e0_0" slope="0.00"/>
        <vehicle id="background.2" x="76.63" y="-1.60" angle="90.00" type="human" speed="5.09" pos="76.63" lane="e0_0" slope="0.00"/>
        <vehicle id="background.3" x="57.62" y="-1.60" angle="90.00" type="human" speed="8.51" pos="57.62" lane="e0_0" slope="0.00"/>
        <vehicle id="background.4" x="11.83" y="-1.60" angle="90.00" type="human" speed="13.46" pos="11.83" lane="e0_0" slope="0.00"/>
        <vehicle id="ego" x="103.19" y="-1.60" angle="90.00" type="ego_glosa_type" speed="4.84" pos="103.19" lane="e0_0" slope="0.00"/>
    </timestep>
    <timestep time="54.00">
        <vehicle id="background.1" x="92.89" y="-1.60" angle="90.00" type="human" speed="4.81" pos="92.89" lane="e0_0" slope="0.00"/>
        <vehicle id="background.2" x="79.37" y="-1.60" angle="90.00" type="human" speed="5.46" pos="79.37" lane="e0_0" slope="0.00"/>
        <vehicle id="background.3" x="61.61" y="-1.60" angle="90.00" type="human" speed="7.99" pos="61.61" lane="e0_0" slope="0.00"/>
        <vehicle id="background.4" x="18.57" y="-1.60" angle="90.00" type="human" speed="13.47" pos="18.57" lane="e0_0" slope="0.00"/>
        <vehicle id="ego" x="105.61" y="-1.60" angle="90.00" type="ego_glosa_type" speed="4.84" pos="105.61" lane="e0_0" slope="0.00"/>
    </timestep>
    <timestep time="54.50">
        <vehicle id="background.1" x="95.35" y="-1.60" angle="90.00" type="human" speed="4.92" pos="95.35" lane="e0_0" slope="0.00"/>
        <vehicle id="background.2" x="82.07" y="-1.60" angle="90.00" type="human" speed="5.41" pos="82.07" lane="e0_0" slope="0.00"/>
        <vehicle id="background.3" x="65.29" y="-1.60" angle="90.00" type="human" speed="7.34" pos="65.29" lane="e0_0" slope="0.00"/>
        <vehicle id="background.4" x="25.36" y="-1.60" angle="90.00" type="human" speed="13.60" pos="25.36" lane="e0_0" slope="0.00"/>
        <vehicle id="ego" x="108.03" y="-1.60" angle="90.00" type="ego_glosa_type" speed="4.84" pos="108.03" lane="e0_0" slope="0.00"/>
    </timestep>
    <timestep time="55.00">
        <vehicle id="background.1" x="97.76" y="-1.60" angle="90.00" type="human" speed="4.82" pos="97.76" lane="e0_0" slope="0.00"/>
        <vehicle id="background.2" x="84.69" y="-1.60" angle="90.00" type="human" speed="5.24" pos="84.69" lane="e0_0" slope="0.00"/>
        <vehicle id="background.3" x="68.87" y="-1.60" angle="90.00" type="human" speed="7.17" pos="68.87" lane="e0_0" slope="0.00"/>