<?xml version="1.0" encoding="UTF-8"?>

<!-- generated on 2026-05-14 17:06:03 by Eclipse SUMO sumo Version 1.24.0
<sumoConfiguration xmlns:xsi="http://www.w3.org/2001/XMLSchema-instance" xsi:noNamespaceSchemaLocation="http://sumo.dlr.de/xsd/sumoConfiguration.xsd">

    <input>
        <net-file value="scenarios/simple_arterial/simple_arterial.net.xml"/>
        <route-files value="scenarios/simple_arterial/simple_arterial_glosa.rou.xml"/>
        <additional-files value="scenarios/simple_arterial/simple_arterial.tls.xml"/>
    </input>

    <output>
        <fcd-output value="runs/fcd_expert_glosa/episode_00037_seed_79.fcd.xml"/>
    </output>

    <time>
        <begin value="0"/>
        <end value="900"/>
        <step-length value="0.5"/>
    </time>

    <report>
        <no-warnings value="true"/>
    </report>

    <traci_server>
        <remote-port value="37703"/>
    </traci_server>

    <random_number>
        <seed value="79"/>
    </random_number>

</sumoConfiguration>
-->

<fcd-export xmlns:xsi="http://www.w3.org/2001/XMLSchema-instance" xsi:noNamespaceSchemaLocation="http://sumo.dlr.de/xsd/fcd_file.xsd">
    <timestep time="0.00"/>
    <timestep time="0.50"/>
    <timestep time="1.00"/>
    <timestep time="1.50"/>
    <timestep time="2.00"/>
    <timestep time="2.50"/>
    <timestep time="3.00"/>
    <timestep time="3.50"/>
    <timestep time="4.00"/>
    <timestep time="4.50"/>
    <timestep time="5.00"/>
    <timestep time="5.50"/>
    <timestep time="6.00"/>
    <timestep time="6.50"/>
    <timestep time="7.00"/>
    <timestep time="7.50"/>
    <timestep time="8.00">
        <vehicle id="background.0" x="5.10" y="-1.60" angle="90.00" type="human" speed="13.89" pos="5.10" lane="e0_0" slope="0.00"/>
    </timestep>
    <timestep time="8.50">
        <vehicle id="background.0" x="11.91" y="-1.60" angle="90.00" type="human" speed="13.63" pos="11.91" lane="e0_0" slope="0.00"/>
    </timestep>
    <timestep time="9.00">
        <vehicle id="background.0" x="18.69" y="-1.60" angle="90.00" type="human" speed="13.55" pos="18.69" lane="e0_0" slope="0.00"/>
        <vehicle id="background.1" x="5.10" y="-1.60" angle="90.00" type="human" speed="11.20" pos="5.10" lane="e0_0" slope="0.00"/>
    </timestep>
    <timestep time="9.50">
        <vehicle id="background.0" x="25.46" y="-1.60" angle="90.00" type="human" speed="13.54" pos="25.46" lane="e0_0" slope="0.00"/>
        <vehicle id="background.1" x="10.57" y="-1.60" angle="90.00" type="human" speed="10.93" pos="10.57" lane="e0_0" slope="0.00"/>
    </timestep>
    <timestep time="10.00">
        <vehicle id="background.0" x="32.34" y="-1.60" angle="90.00" type="human" speed="13.76" pos="32.34" lane="e0_0" slope="0.00"/>
        <vehicle id="background.1" x="16.12" y="-1.60" angle="90.00" type="human" speed="11.12" pos="16.12" lane="e0_0" slope="0.00"/>
    </timestep>
    <timestep time="10.50">
        <vehicle id="background.0" x="39.11" y="-1.60" angle="90.00" type="human" speed="13.55" pos="39.11" lane="e0_0" slope="0.00"/>
        <vehicle id="background.1" x="21.52" y="-1.60" angle="90.00" type="human" speed="10.80" pos="21.52" lane="e0_0" slope="0.00"/>
    </timestep>
    <timestep time="11.00">
        <vehicle id="background.0" x="45.83" y="-1.60" angle="90.00" type="human" speed="13.44" pos="45.83" lane="e0_0" slope="0.00"/>
        <vehicle id="background.1" x="26.90" y="-1.60" angle="90.00" type="human" speed="10.75" pos="26.90" lane="e0_0" slope="0.00"/>
    </timestep>
    <timestep time="11.50">
        <vehicle id="background.0" x="52.61" y="-1.60" angle="90.00" type="human" speed="13.55" pos="52.61" lane="e0_0" slope="0.00"/>
        <vehicle id="background.1" x="32.31" y="-1.60" angle="90.00" type="human" speed="10.82" pos="32.31" lane="e0_0" slope="0.00"/>
    </timestep>
    <timestep time="12.00">
        <vehicle id="background.0" x="59.50" y="-1.60" angle="90.00" type="human" speed="13.78" pos="59.50" lane="e0_0" slope="0.00"/>
        <vehicle id="background.1" x="37.67" y="-1.60" angle="90.00" type="human" speed="10.72" pos="37.67" lane="e0_0" slope="0.00"/>
    </timestep>
    <timestep time="12.50">
        <vehicle id="background.0" x="66.36" y="-1.60" angle="90.00" type="human" speed="13.73" pos="66.36" lane="e0_0" slope="0.00"/>
        <vehicle id="background.1" x="43.11" y="-1.60" angle="90.00" type="human" speed="10.87" pos="43.11" lane="e0_0" slope="0.00"/>
    </timestep>
    <timestep time="13.00">
        <vehicle id="background.0" x="73.24" y="-1.60" angle="90.00" type="human" speed="13.76" pos="73.24" lane="e0_0" slope="0.00"/>
        <vehicle id="background.1" x="48.50" y="-1.60" angle="90.00" type="human" speed="10.78" pos="48.50" lane="e0_0" slope="0.00"/>
    </timestep>
    <timestep time="13.50">
        <vehicle id="background.0" x="80.16" y="-1.60" angle="90.00" type="human" speed="13.83" pos="80.16" lane="e0_0" slope="0.00"/>
        <vehicle id="background.1" x="54.02" y="-1.60" angle="90.00" type="human" speed="11.04" pos="54.02" lane="e0_0" slope="0.00"/>
    </timestep>
    <timestep time="14.00">
        <vehicle id="background.0" x="86.85" y="-1.60" angle="90.00" type="human" speed="13.39" pos="86.85" lane="e0_0" slope="0.00"/>
        <vehicle id="background.1" x="59.43" y="-1.60" angle="90.00" type="human" speed="10.81" pos="59.43" lane="e0_0" slope="0.00"/>
    </timestep>
    <timestep time="14.50">
        <vehicle id="background.0" x="93.78" y="-1.60" angle="90.00" type="human" speed="13.85" pos="93.78" lane="e0_0" slope="0.00"/>
        <vehicle id="background.1" x="64.94" y="-1.60" angle="90.00" type="human" speed="11.02" pos="64.94" lane="e0_0" slope="0.00"/>
    </timestep>
    <timestep time="15.00">
        <vehicle id="background.0" x="100.65" y="-1.60" angle="90.00" type="human" speed="13.75" pos="100.65" lane="e0_0" slope="0.00"/>
        <vehicle id="background.1" x="70.34" y="-1.60" angle="90.00" type="human" speed="10.80" pos="70.34" lane="e0_0" slope="0.00"/>
    </timestep>
    <timestep time="15.50">
        <vehicle id="background.0" x="107.46" y="-1.60" angle="90.00" type="human" speed="13.62" pos="107.46" lane="e0_0" slope="0.00"/>
        <vehicle id="background.1" x="75.77" y="-1.60" angle="90.00" type="human" speed="10.87" pos="75.77" lane="e0_0" slope="0.00"/>
        <vehicle id="background.2" x="5.10" y="-1.60" angle="90.00" type="human" speed="13.89" pos="5.10" lane="e0_0" slope="0.00"/>
    </timestep>
    <timestep time="16.00">
        <vehicle id="background.0" x="114.20" y="-1.60" angle="90.00" type="human" speed="13.47" pos="114.20" lane="e0_0" slope="0.00"/>
        <vehicle id="background.1" x="81.31" y="-1.60" angle="90.00" type="human" speed="11.07" pos="81.31" lane="e0_0" slope="0.00"/>
        <vehicle id="background.2" x="11.99" y="-1.60" angle="90.00" type="human" speed="13.79" pos="11.99" lane="e0_0" slope="0.00"/>
    </timestep>
    <timestep time="16.50">
        <vehicle id="background.0" x="120.93" y="-1.60" angle="90.00" type="human" speed="13.46" pos="120.93" lane="e0_0" slope="0.00"/>
        <vehicle id="background.1" x="86.71" y="-1.60" angle="90.00" type="human" speed="10.79" pos="86.71" lane="e0_0" slope="0.00"/>
        <vehicle id="background.2" x="18.82" y="-1.60" angle="90.00" type="human" speed="13.66" pos="18.82" lane="e0_0" slope="0.00"/>
    </timestep>
    <timestep time="17.00">
        <vehicle id="background.0" x="127.78" y="-1.60" angle="90.00" type="human" speed="13.70" pos="127.78" lane="e0_0" slope="0.00"/>
        <vehicle id="background.1" x="92.11" y="-1.60" angle="90.00" type="human" speed="10.81" pos="92.11" lane="e0_0" slope="0.00"/>
        <vehicle id="background.2" x="25.57" y="-1.60" angle="90.00" type="human" speed="13.49" pos="25.57" lane="e0_0" slope="0.00"/>
    </timestep>
    <timestep time="17.50">
        <vehicle id="background.0" x="134.51" y="-1.60" angle="90.00" type="human" speed="13.46" pos="134.51" lane="e0_0" slope="0.00"/>
        <vehicle id="background.1" x="97.70" y="-1.60" angle="90.00" type="human" speed="11.19" pos="97.70" lane="e0_0" slope="0.00"/>
        <vehicle id="background.2" x="32.28" y="-1.60" angle="90.00" type="human" speed="13.43" pos="32.28" lane="e0_0" slope="0.00"/>
    </timestep>
    <timestep time="18.00">
        <vehicle id="background.0" x="141.28" y="-1.60" angle="90.00" type="human" speed="13.56" pos="141.28" lane="e0_0" slope="0.00"/>
        <vehicle id="background.1" x="103.13" y="-1.60" angle="90.00" type="human" speed="10.84" pos="103.13" lane="e0_0" slope="0.00"/>
        <vehicle id="background.2" x="39.15" y="-1.60" angle="90.00" type="human" speed="13.74" pos="39.15" lane="e0_0" slope="0.00"/>
    </timestep>
    <timestep time="18.50">
        <vehicle id="background.0" x="148.10" y="-1.60" angle="90.00" type="human" speed="13.62" pos="148.10" lane="e0_0" slope="0.00"/>
        <vehicle id="background.1" x="108.64" y="-1.60" angle="90.00" type="human" speed="11.03" pos="108.64" lane="e0_0" slope="0.00"/>
        <vehicle id="background.2" x="46.08" y="-1.60" angle="90.00" type="human" speed="13.86" pos="46.08" lane="e0_0" slope="0.00"/>
    </timestep>
    <timestep time="19.00">
        <vehicle id="background.0" x="154.94" y="-1.60" angle="90.00" type="human" speed="13.68" pos="154.94" lane="e0_0" slope="0.00"/>
        <vehicle id="background.1" x="114.05" y="-1.60" angle="90.00" type="human" speed="10.82" pos="114.05" lane="e0_0" slope="0.00"/>
        <vehicle id="background.2" x="52.91" y="-1.60" angle="90.00" type="human" speed="13.65" pos="52.91" lane="e0_0" slope="0.00"/>
    </timestep>
    <timestep time="19.50">
        <vehicle id="background.0" x="161.73" y="-1.60" angle="90.00" type="human" speed="13.59" pos="161.73" lane="e0_0" slope="0.00"/>
        <vehicle id="background.1" x="119.42" y="-1.60" angle="90.00" type="human" speed="10.72" pos="119.42" lane="e0_0" slope="0.00"/>
        <vehicle id="background.2" x="59.81" y="-1.60" angle="90.00" type="human" speed="13.80" pos="59.81" lane="e0_0" slope="0.00"/>
    </timestep>
    <timestep time="20.00">
        <vehicle id="background.0" x="168.49" y="-1.60" angle="90.00" type="human" speed="13.52" pos="168.49" lane="e0_0" slope="0.00"/>
        <vehicle id="background.1" x="124.99" y="-1.60" angle="90.00" type="human" speed="11.16" pos="124.99" lane="e0_0" slope="0.00"/>
        <vehicle id="background.2" x="66.51" y="-1.60" angle="90.00" type="human" speed="13.40" pos="66.51" lane="e0_0" slope="0.00"/>
    </timestep>
    <timestep time="20.50">
        <vehicle id="background.0" x="175.39" y="-1.60" angle="90.00" type="human" speed="13.78" pos="175.39" lane="e0_0" slope="0.00"/>
        <vehicle id="background.1" x="130.45" y="-1.60" angle="90.00" type="human" speed="10.91" pos="130.45" lane="e0_0" slope="0.00"/>
        <vehicle id="background.2" x="73.33" y="-1.60" angle="90.00" type="human" speed="13.65" pos="73.33" lane="e0_0" slope="0.00"/>
    </timestep>
    <timestep time="21.00">
        <vehicle id="background.0" x="182.20" y="-1.60" angle="90.00" type="human" speed="13.63" pos="182.20" lane="e0_0" slope="0.00"/>
        <vehicle id="background.1" x="136.02" y="-1.60" angle="90.00" type="human" speed="11.15" pos="136.02" lane="e0_0" slope="0.00"/>
        <vehicle id="background.2" x="80.17" y="-1.60" angle="90.00" type="human" speed="13.67" pos="80.17" lane="e0_0" slope="0.00"/>
    </timestep>
    <timestep time="21.50">
        <vehicle id="background.0" x="189.07" y="-1.60" angle="90.00" type="human" speed="13.74" pos="189.07" lane="e0_0" slope="0.00"/>
        <vehicle id="background.1" x="141.40" y="-1.60" angle="90.00" type="human" speed="10.76" pos="141.40" lane="e0_0" slope="0.00"/>
        <vehicle id="background.2" x="87.11" y="-1.60" angle="90.00" type="human" speed="13.87" pos="87.11" lane="e0_0" slope="0.00"/>
    </timestep>
    <timestep time="22.00">
        <vehicle id="background.0" x="195.86" y="-1.60" angle="90.00" type="human" speed="13.58" pos="195.86" lane="e0_0" slope="0.00"/>
        <vehicle id="background.1" x="146.83" y="-1.60" angle="90.00" type="human" speed="10.85" pos="146.83" lane="e0_0" slope="0.00"/>
        <vehicle id="background.2" x="93.92" y="-1.60" angle="90.00" type="human" speed="13.63" pos="93.92" lane="e0_0" slope="0.00"/>
    </timestep>
    <timestep time="22.50">
        <vehicle id="background.0" x="202.67" y="-1.60" angle="90.00" type="human" speed="13.62" pos="202.67" lane="e0_0" slope="0.00"/>
        <vehicle id="background.1" x="152.41" y="-1.60" angle="90.00" type="human" speed="11.16" pos="152.41" lane="e0_0" slope="0.00"/>
        <vehicle id="background.2" x="100.69" y="-1.60" angle="90.00" type="human" speed="13.55" pos="100.69" lane="e0_0" slope="0.00"/>
    </timestep>
    <timestep time="23.00">
        <vehicle id="background.0" x="209.50" y="-1.60" angle="90.00" type="human" speed="13.65" pos="209.50" lane="e0_0" slope="0.00"/>
        <vehicle id="background.1" x="157.83" y="-1.60" angle="90.00" type="human" speed="10.84" pos="157.83" lane="e0_0" slope="0.00"/>
        <vehicle id="background.2" x="107.58" y="-1.60" angle="90.00" type="human" speed="13.77" pos="107.58" lane="e0_0" slope="0.00"/>
        <vehicle id="background.3" x="5.10" y="-1.60" angle="90.00" type="human" speed="12.31" pos="5.10" lane="e0_0" slope="0.00"/>
    </timestep>
    <timestep time="23.50">
        <vehicle id="background.0" x="216.31" y="-1.60" angle="90.00" type="human" speed="13.61" pos="216.31" lane="e0_0" slope="0.00"/>
        <vehicle id="background.1" x="163.29" y="-1.60" angle="90.00" type="human" speed="10.93" pos="163.29" lane="e0_0" slope="0.00"/>
        <vehicle id="background.2" x="114.48" y="-1.60" angle="90.00" type="human" speed="13.80" pos="114.48" lane="e0_0" slope="0.00"/>
        <vehicle id="background.3" x="11.23" y="-1.60" angle="90.00" type="human" speed="12.25" pos="11.23" lane="e0_0" slope="0.00"/>
    </timestep>
    <timestep time="24.00">
        <vehicle id="background.0" x="223.09" y="-1.60" angle="90.00" type="human" speed="13.57" pos="223.09" lane="e0_0" slope="0.00"/>
        <vehicle id="background.1" x="168.85" y="-1.60" angle="90.00" type="human" speed="11.12" pos="168.85" lane="e0_0" slope="0.00"/>
        <vehicle id="background.2" x="121.27" y="-1.60" angle="90.00" type="human" speed="13.57" pos="121.27" lane="e0_0" slope="0.00"/>
        <vehicle id="background.3" x="17.14" y="-1.60" angle="90.00" type="human" speed="11.83" pos="17.14" lane="e0_0" slope="0.00"/>
    </timestep>
    <timestep time="24.50">
        <vehicle id="background.0" x="230.00" y="-1.60" angle="90.00" type="human" speed="13.82" pos="230.00" lane="e0_0" slope="0.00"/>
        <vehicle id="background.1" x="174.21" y="-1.60" angle="90.00" type="human" speed="10.71" pos="174.21" lane="e0_0" slope="0.00"/>
        <vehicle id="background.2" x="128.12" y="-1.60" angle="90.00" type="human" speed="13.71" pos="128.12" lane="e0_0" slope="0.00"/>
        <vehicle id="background.3" x="23.28" y="-1.60" angle="90.00" type="human" speed="12.27" pos="23.28" lane="e0_0" slope="0.00"/>
    </timestep>
    <timestep time="25.00">
        <vehicle id="background.0" x="236.82" y="-1.60" angle="90.00" type="human" speed="13.63" pos="236.82" lane="e0_0" slope="0.00"/>
        <vehicle id="background.1" x="179.60" y="-1.60" angle="90.00" type="human" speed="10.78" pos="179.60" lane="e0_0" slope="0.00"/>
        <vehicle id="background.2" x="135.01" y="-1.60" angle="90.00" type="human" speed="13.78" pos="135.01" lane="e0_0" slope="0.00"/>
        <vehicle id="background.3" x="29.41" y="-1.60" angle="90.00" type="human" speed="12.26" pos="29.41" lane="e0_0" slope="0.00"/>
    </timestep>
    <timestep time="25.50">
        <vehicle id="background.0" x="243.59" y="-1.60" angle="90.00" type="human" speed="13.54" pos="243.59" lane="e0_0" slope="0.00"/>
        <vehicle id="background.1" x="185.02" y="-1.60" angle="90.00" type="human" speed="10.84" pos="185.02" lane="e0_0" slope="0.00"/>
        <vehicle id="background.2" x="141.85" y="-1.60" angle="90.00" type="human" speed="13.67" pos="141.85" lane="e0_0" slope="0.00"/>
        <vehicle id="background.3" x="35.41" y="-1.60" angle="90.00" type="human" speed="12.01" pos="35.41" lane="e0_0" slope="0.00"/>
    </timestep>
    <timestep time="26.00">
        <vehicle id="background.0" x="250.50" y="-1.60" angle="90.00" type="human" speed="13.83" pos="250.50" lane="e0_0" slope="0.00"/>
        <vehicle id="background.1" x="190.57" y="-1.60" angle="90.00" type="human" speed="11.11" pos="190.57" lane="e0_0" slope="0.00"/>
        <vehicle id="background.2" x="148.79" y="-1.60" angle="90.00" type="human" speed="13.89" pos="148.79" lane="e0_0" slope="0.00"/>
        <vehicle id="background.3" x="41.38" y="-1.60" angle="90.00" type="human" speed="11.95" pos="41.38" lane="e0_0" slope="0.00"/>
    </timestep>
    <timestep time="26.50">
        <vehicle id="background.0" x="257.25" y="-1.60" angle="90.00" type="human" speed="13.50" pos="257.25" lane="e0_0" slope="0.00"/>
        <vehicle id="background.1" x="196.11" y="-1.60" angle="90.00" type="human" speed="11.07" pos="196.11" lane="e0_0" slope="0.00"/>
        <vehicle id="background.2" x="155.56" y="-1.60" angle="90.00" type="human" speed="13.53" pos="155.56" lane="e0_0" slope="0.00"/>
        <vehicle id="background.3" x="47.31" y="-1.60" angle="90.00" type="human" speed="11.86" pos="47.31" lane="e0_0" slope="0.00"/>
    </timestep>
    <timestep time="27.00">
        <vehicle id="background.0" x="263.98" y="-1.60" angle="90.00" type="human" speed="13.46" pos="263.98" lane="e0_0" slope="0.00"/>
        <vehicle id="background.1" x="201.60" y="-1.60" angle="90.00" type="human" speed="10.98" pos="201.60" lane="e0_0" slope="0.00"/>
        <vehicle id="background.2" x="162.49" y="-1.60" angle="90.00" type="human" speed="13.86" pos="162.49" lane="e0_0" slope="0.00"/>
        <vehicle id="background.3" x="53.24" y="-1.60" angle="90.00" type="human" speed="11.85" pos="53.24" lane="e0_0" slope="0.00"/>
    </timestep>
    <timestep time="27.50">
        <vehicle id="background.0" x="270.84" y="-1.60" angle="90.00" type="human" speed="13.72" pos="270.84" lane="e0_0" slope="0.00"/>
        <vehicle id="background.1" x="207.19" y="-1.60" angle="90.00" type="human" speed="11.18" pos="207.19" lane="e0_0" slope="0.00"/>
        <vehicle id="background.2" x="169.25" y="-1.60" angle="90.00" type="human" speed="13.52" pos="169.25" lane="e0_0" slope="0.00"/>
        <vehicle id="background.3" x="59.21" y="-1.60" angle="90.00" type="human" speed="11.94" pos="59.21" lane="e0_0" slope="0.00"/>
    </timestep>
    <timestep time="28.00">
        <vehicle id="background.0" x="277.72" y="-1.60" angle="90.00" type="human" speed="13.75" pos="277.72" lane="e0_0" slope="0.00"/>
        <vehicle id="background.1" x="212.61" y="-1.60" angle="90.00" type="human" speed="10.85" pos="212.61" lane="e0_0" slope="0.00"/>
        <vehicle id="background.2" x="176.08" y="-1.60" angle="90.00" type="human" speed="13.67" pos="176.08" lane="e0_0" slope="0.00"/>
        <vehicle id="background.3" x="65.12" y="-1.60" angle="90.00" type="human" speed="11.83" pos="65.12" lane="e0_0" slope="0.00"/>
    </timestep>
    <timestep time="28.50">
        <vehicle id="background.0" x="284.58" y="-1.60" angle="90.00" type="human" speed="13.72" pos="284.58" lane="e0_0" slope="0.00"/>
        <vehicle id="background.1" x="218.06" y="-1.60" angle="90.00" type="human" speed="10.88" pos="218.06" lane="e0_0" slope="0.00"/>
        <vehicle id="background.2" x="183.01" y="-1.60" angle="90.00" type="human" speed="13.84" pos="183.01" lane="e0_0" slope="0.00"/>
        <vehicle id="background.3" x="71.03" y="-1.60" angle="90.00" type="human" speed="11.82" pos="71.03" lane="e0_0" slope="0.00"/>
    </timestep>
    <timestep time="29.00">
        <vehicle id="background.0" x="291.47" y="-1.60" angle="90.00" type="human" speed="13.79" pos="291.47" lane="e0_0" slope="0.00"/>
        <vehicle id="background.1" x="223.59" y="-1.60" angle="90.00" type="human" speed="11.06" pos="223.59" lane="e0_0" slope="0.00"/>
        <vehicle id="background.2" x="189.79" y="-1.60" angle="90.00" type="human" speed="13.56" pos="189.79" lane="e0_0" slope="0.00"/>
        <vehicle id="background.3" x="76.98" y="-1.60" angle="90.00" type="human" speed="11.89" pos="76.98" lane="e0_0" slope="0.00"/>
    </timestep>
    <timestep time="29.50">
        <vehicle id="background.0" x="298.23" y="-1.60" angle="90.00" type="human" speed="13.52" pos="298.23" lane="e0_0" slope="0.00"/>
        <vehicle id="background.1" x="228.94" y="-1.60" angle="90.00" type="human" speed="10.71" pos="228.94" lane="e0_0" slope="0.00"/>
        <vehicle id="background.2" x="196.65" y="-1.60" angle="90.00" type="human" speed="13.74" pos="196.65" lane="e0_0" slope="0.00"/>
        <vehicle id="background.3" x="82.97" y="-1.60" angle="90.00" type="human" speed="11.98" pos="82.97" lane="e0_0" slope="0.00"/>
    </timestep>
    <timestep time="30.00">
        <vehicle id="background.0" x="304.98" y="-1.60" angle="90.00" type="human" speed="13.69" pos="4.98" lane="e1_0" slope="0.00"/>
        <vehicle id="background.1" x="234.40" y="-1.60" angle="90.00" type="human" speed="10.91" pos="234.40" lane="e0_0" slope="0.00"/>
        <vehicle id="background.2" x="203.41" y="-1.60" angle="90.00" type="human" speed="13.50" pos="203.41" lane="e0_0" slope="0.00"/>
        <vehicle id="background.3" x="88.89" y="-1.60" angle="90.00" type="human" speed="11.85" pos="88.89" lane="e0_0" slope="0.00"/>
    </timestep>
    <timestep time="30.50">
        <vehicle id="background.0" x="311.83" y="-1.60" angle="90.00" type="human" speed="13.71" pos="11.83" lane="e1_0" slope="0.00"/>
        <vehicle id="background.1" x="239.93" y="-1.60" angle="90.00" type="human" speed="11.07" pos="239.93" lane="e0_0" slope="0.00"/>
        <vehicle id="background.2" x="210.12" y="-1.60" angle="90.00" type="human" speed="13.43" pos="210.12" lane="e0_0" slope="0.00"/>
        <vehicle id="background.3" x="94.81" y="-1.60" angle="90.00" type="human" speed="11.85" pos="94.81" lane="e0_0" slope="0.00"/>
    </timestep>
    <timestep time="31.00">
        <vehicle id="background.0" x="318.66" y="-1.60" angle="90.00" type="human" speed="13.65" pos="18.66" lane="e1_0" slope="0.00"/>
        <vehicle id="background.1" x="245.53" y="-1.60" angle="90.00" type="human" speed="11.19" pos="245.53" lane="e0_0" slope="0.00"/>
        <vehicle id="background.2" x="216.97" y="-1.60" angle="90.00" type="human" speed="13.69" pos="216.97" lane="e0_0" slope="0.00"/>
        <vehicle id="background.3" x="100.82" y="-1.60" angle="90.00" type="human" speed="12.01" pos="100.82" lane="e0_0" slope="0.00"/>
    </timestep>
    <timestep time="31.50">
        <vehicle id="background.0" x="325.52" y="-1.60" angle="90.00" type="human" speed="13.72" pos="25.52" lane="e1_0" slope="0.00"/>
        <vehicle id="background.1" x="251.10" y="-1.60" angle="90.00" type="human" speed="11.14" pos="251.10" lane="e0_0" slope="0.00"/>
        <vehicle id="background.2" x="223.91" y="-1.60" angle="90.00" type="human" speed="13.88" pos="223.91" lane="e0_0" slope="0.00"/>
        <vehicle id="background.3" x="106.74" y="-1.60" angle="90.00" type="human" speed="11.84" pos="106.74" lane="e0_0" slope="0.00"/>
    </timestep>
    <timestep time="32.00">
        <vehicle id="background.0" x="332.26" y="-1.60" angle="90.00" type="human" speed="13.48" pos="32.26" lane="e1_0" slope="0.00"/>
        <vehicle id="background.1" x="256.64" y="-1.60" angle="90.00" type="human" speed="11.09" pos="256.64" lane="e0_0" slope="0.00"/>
        <vehicle id="background.2" x="230.62" y="-1.60" angle="90.00" type="human" speed="13.42" pos="230.62" lane="e0_0" slope="0.00"/>
        <vehicle id="background.3" x="112.71" y="-1.60" angle="90.00" type="human" speed="11.94" pos="112.71" lane="e0_0" slope="0.00"/>
    </timestep>
    <timestep time="32.50">
        <vehicle id="background.0" x="338.97" y="-1.60" angle="90.00" type="human" speed="13.42" pos="38.97" lane="e1_0" slope="0.00"/>
        <vehicle id="background.1" x="262.04" y="-1.60" angle="90.00" type="human" speed="10.80" pos="262.04" lane="e0_0" slope="0.00"/>
        <vehicle id="background.2" x="237.20" y="-1.60" angle="90.00" type="human" speed="13.16" pos="237.20" lane="e0_0" slope="0.00"/>
        <vehicle id="background.3" x="118.82" y="-1.60" angle="90.00" type="human" speed="12.23" pos="118.82" lane="e0_0" slope="0.00"/>
    </timestep>
    <timestep time="33.00">
        <vehicle id="background.0" x="345.75" y="-1.60" angle="90.00" type="human" speed="13.56" pos="45.75" lane="e1_0" slope="0.00"/>
        <vehicle id="background.1" x="267.46" y="-1.60" angle="90.00" type="human" speed="10.85" pos="267.46" lane="e0_0" slope="0.00"/>
        <vehicle id="background.2" x="243.42" y="-1.60" angle="90.00" type="human" speed="12.43" pos="243.42" lane="e0_0" slope="0.00"/>
        <vehicle id="background.3" x="124.88" y="-1.60" angle="90.00" type="human" speed="12.11" pos="124.88" lane="e0_0" slope="0.00"/>
    </timestep>
    <timestep time="33.50">
        <vehicle id="background.1" x="272.81" y="-1.60" angle="90.00" type="human" speed="10.70" pos="272.81" lane="e0_0" slope="0.00"/>
        <vehicle id="background.2" x="249.53" y="-1.60" angle="90.00" type="human" speed="12.24" pos="249.53" lane="e0_0" slope="0.00"/>
        <vehicle id="background.3" x="130.93" y="-1.60" angle="90.00" type="human" speed="12.11" pos="130.93" lane="e0_0" slope="0.00"/>
    </timestep>
    <timestep time="34.00">
        <vehicle id="background.1" x="278.19" y="-1.60" angle="90.00" type="human" speed="10.74" pos="278.19" lane="e0_0" slope="0.00"/>
        <vehicle id="background.2" x="255.60" y="-1.60" angle="90.00" type="human" speed="12.13" pos="255.60" lane="e0_0" slope="0.00"/>
        <vehicle id="background.3" x="136.97" y="-1.60" angle="90.00" type="human" speed="12.08" pos="136.97" lane="e0_0" slope="0.00"/>
    </timestep>
    <timestep time="34.50">
        <vehicle id="background.1" x="283.54" y="-1.60" angle="90.00" type="human" speed="10.71" pos="283.54" lane="e0_0" slope="0.00"/>
        <vehicle id="background.2" x="261.40" y="-1.60" angle="90.00" type="human" speed="11.61" pos="261.40" lane="e0_0" slope="0.00"/>
        <vehicle id="background.3" x="142.97" y="-1.60" angle="90.00" type="human" speed="11.99" pos="142.97" lane="e0_0" slope="0.00"/>
    </timestep>
    <timestep time="35.00">
        <vehicle id="background.1" x="289.00" y="-1.60" angle="90.00" type="human" speed="10.92" pos="289.00" lane="e0_0" slope="0.00"/>
        <vehicle id="background.2" x="267.16" y="-1.60" angle="90.00" type="human" speed="11.51" pos="267.16" lane="e0_0" slope="0.00"/>
        <vehicle id="background.3" x="148.91" y="-1.60" angle="90.00" type="human" speed="11.88" pos="148.91" lane="e0_0" slope="0.00"/>
    </timestep>
    <timestep time="35.50">
        <vehicle id="background.1" x="294.36" y="-1.60" angle="90.00" type="human" speed="10.71" pos="294.36" lane="e0_0" slope="0.00"/>
        <vehicle id="background.2" x="273.01" y="-1.60" angle="90.00" type="human" speed="11.71" pos="273.01" lane="e0_0" slope="0.00"/>
        <vehicle id="background.3" x="154.87" y="-1.60" angle="90.00" type="human" speed="11.92" pos="154.87" lane="e0_0" slope="0.00"/>
    </timestep>
    <timestep time="36.00">
        <vehicle id="background.1" x="299.90" y="-1.60" angle="90.00" type="human" speed="11.10" pos="299.90" lane="e0_0" slope="0.00"/>
        <vehicle id="background.2" x="278.81" y="-1.60" angle="90.00" type="human" speed="11.60" pos="278.81" lane="e0_0" slope="0.00"/>
        <vehicle id="background.3" x="160.95" y="-1.60" angle="90.00" type="human" speed="12.15" pos="160.95" lane="e0_0" slope="0.00"/>
    </timestep>
    <timestep time="36.50">
        <vehicle id="background.1" x="305.30" y="-1.60" angle="90.00" type="human" speed="10.99" pos="5.30" lane="e1_0" slope="0.00"/>
        <vehicle id="background.2" x="284.58" y="-1.60" angle="90.00" type="human" speed="11.53" pos="284.58" lane="e0_0" slope="0.00"/>
        <vehicle id="background.3" x="166.88" y="-1.60" angle="90.00" type="human" speed="11.86" pos="166.88" lane="e0_0" slope="0.00"/>
    </timestep>
    <timestep time="37.00">
        <vehicle id="background.1" x="310.67" y="-1.60" angle="90.00" type="human" speed="10.75" pos="10.67" lane="e1_0" slope="0.00"/>
        <vehicle id="background.2" x="290.21" y="-1.60" angle="90.00" type="human" speed="11.26" pos="290.21" lane="e0_0" slope="0.00"/>
        <vehicle id="background.3" x="172.95" y="-1.60" angle="90.00" type="human" speed="12.15" pos="172.95" lane="e0_0" slope="0.00"/>
    </timestep>
    <timestep time="37.50">
        <vehicle id="background.1" x="316.06" y="-1.60" angle="90.00" type="human" speed="10.78" pos="16.06" lane="e1_0" slope="0.00"/>
        <vehicle id="background.2" x="295.71" y="-1.60" angle="90.00" type="human" speed="11.00" pos="295.71" lane="e0_0" slope="0.00"/>
        <vehicle id="background.3" x="179.01" y="-1.60" angle="90.00" type="human" speed="12.13" pos="179.01" lane="e0_0" slope="0.00"/>
    </timestep>
    <timestep time="38.00">
        <vehicle id="background.1" x="321.63" y="-1.60" angle="90.00" type="human" speed="11.13" pos="21.63" lane="e1_0" slope="0.00"/>
        <vehicle id="background.2" x="301.28" y="-1.60" angle="90.00" type="human" speed="11.35" pos="1.28" lane="e1_0" slope="0.00"/>
        <vehicle id="background.3" x="185.05" y="-1.60" angle="90.00" type="human" speed="12.07" pos="185.05" lane="e0_0" slope="0.00"/>
    </timestep>
    <timestep time="38.50">
        <vehicle id="background.1" x="327.21" y="-1.60" angle="90.00" type="human" speed="11.17" pos="27.21" lane="e1_0" slope="0.00"/>