<?xml version="1.0" encoding="UTF-8"?>

<!-- generated on 2026-05-13 21:24:24 by Eclipse SUMO sumo Version 1.24.0
<sumoConfiguration xmlns:xsi="http://www.w3.org/2001/XMLSchema-instance" xsi:noNamespaceSchemaLocation="http://sumo.dlr.de/xsd/sumoConfiguration.xsd">

    <input>
        <net-file value="scenarios/simple_arterial/simple_arterial.net.xml"/>
        <route-files value="scenarios/simple_arterial/simple_arterial_glosa.rou.xml"/>
        <additional-files value="scenarios/simple_arterial/simple_arterial.tls.xml"/>
    </input>

    <output>
        <fcd-output value="runs/fcd_expert_glosa/episode_00015_seed_57.fcd.xml"/>
    </output>

    <time>
        <begin value="0"/>
        <end value="900"/>
        <step-length value="0.5"/>
    </time>

    <report>
        <no-warnings value="true"/>
    </report>

    <traci_server>
        <remote-port value="27311"/>
    </traci_server>

    <random_number>
        <seed value="57"/>
    </random_number>

</sumoConfiguration>
-->

<fcd-export xmlns:xsi="http://www.w3.org/2001/XMLSchema-instance" xsi:noNamespaceSchemaLocation="http://sumo.dlr.de/xsd/fcd_file.xsd">
    <timestep time="0.00"/>
    <timestep time="0.50"/>
    <timestep time="1.00"/>
    <timestep time="1.50"/>
    <timestep time="2.00"/>
    <timestep time="2.50"/>
    <timestep time="3.00"/>
    <timestep time="3.50"/>
    <timestep time="4.00"/>
    <timestep time="4.50"/>
    <timestep time="5.00"/>
    <timestep time="5.50"/>
    <timestep time="6.00"/>
    <timestep time="6.50"/>
    <timestep time="7.00"/>
    <timestep time="7.50"/>
    <timestep time="8.00"/>
    <timestep time="8.50"/>
    <timestep time="9.00"/>
    <timestep time="9.50"/>
    <timestep time="10.00"/>
    <timestep time="10.50"/>
    <timestep time="11.00"/>
    <timestep time="11.50"/>
    <timestep time="12.00"/>
    <timestep time="12.50"/>
    <timestep time="13.00"/>
    <timestep time="13.50"/>
    <timestep time="14.00"/>
    <timestep time="14.50">
        <vehicle id="background.0" x="5.10" y="-1.60" angle="90.00" type="human" speed="12.83" pos="5.10" lane="e0_0" slope="0.00"/>
    </timestep>
    <timestep time="15.00">
        <vehicle id="background.0" x="11.42" y="-1.60" angle="90.00" type="human" speed="12.65" pos="11.42" lane="e0_0" slope="0.00"/>
    </timestep>
    <timestep time="15.50">
        <vehicle id="background.0" x="17.63" y="-1.60" angle="90.00" type="human" speed="12.41" pos="17.63" lane="e0_0" slope="0.00"/>
    </timestep>
    <timestep time="16.00">
        <vehicle id="background.0" x="23.93" y="-1.60" angle="90.00" type="human" speed="12.60" pos="23.93" lane="e0_0" slope="0.00"/>
    </timestep>
    <timestep time="16.50">
        <vehicle id="background.0" x="30.12" y="-1.60" angle="90.00" type="human" speed="12.38" pos="30.12" lane="e0_0" slope="0.00"/>
    </timestep>
    <timestep time="17.00">
        <vehicle id="background.0" x="36.41" y="-1.60" angle="90.00" type="human" speed="12.58" pos="36.41" lane="e0_0" slope="0.00"/>
    </timestep>
    <timestep time="17.50">
        <vehicle id="background.0" x="42.59" y="-1.60" angle="90.00" type="human" speed="12.35" pos="42.59" lane="e0_0" slope="0.00"/>
    </timestep>
    <timestep time="18.00">
        <vehicle id="background.0" x="48.98" y="-1.60" angle="90.00" type="human" speed="12.79" pos="48.98" lane="e0_0" slope="0.00"/>
    </timestep>
    <timestep time="18.50">
        <vehicle id="background.0" x="55.16" y="-1.60" angle="90.00" type="human" speed="12.35" pos="55.16" lane="e0_0" slope="0.00"/>
    </timestep>
    <timestep time="19.00">
        <vehicle id="background.0" x="61.43" y="-1.60" angle="90.00" type="human" speed="12.54" pos="61.43" lane="e0_0" slope="0.00"/>
    </timestep>
    <timestep time="19.50">
        <vehicle id="background.0" x="67.71" y="-1.60" angle="90.00" type="human" speed="12.56" pos="67.71" lane="e0_0" slope="0.00"/>
    </timestep>
    <timestep time="20.00">
        <vehicle id="background.0" x="74.05" y="-1.60" angle="90.00" type="human" speed="12.68" pos="74.05" lane="e0_0" slope="0.00"/>
    </timestep>
    <timestep time="20.50">
        <vehicle id="background.0" x="80.41" y="-1.60" angle="90.00" type="human" speed="12.73" pos="80.41" lane="e0_0" slope="0.00"/>
    </timestep>
    <timestep time="21.00">
        <vehicle id="background.0" x="86.75" y="-1.60" angle="90.00" type="human" speed="12.67" pos="86.75" lane="e0_0" slope="0.00"/>
    </timestep>
    <timestep time="21.50">
        <vehicle id="background.0" x="92.95" y="-1.60" angle="90.00" type="human" speed="12.40" pos="92.95" lane="e0_0" slope="0.00"/>
    </timestep>
    <timestep time="22.00">
        <vehicle id="background.0" x="99.27" y="-1.60" angle="90.00" type="human" speed="12.64" pos="99.27" lane="e0_0" slope="0.00"/>
    </timestep>
    <timestep time="22.50">
        <vehicle id="background.0" x="105.60" y="-1.60" angle="90.00" type="human" speed="12.65" pos="105.60" lane="e0_0" slope="0.00"/>
    </timestep>
    <timestep time="23.00">
        <vehicle id="background.0" x="111.81" y="-1.60" angle="90.00" type="human" speed="12.42" pos="111.81" lane="e0_0" slope="0.00"/>
    </timestep>
    <timestep time="23.50">
        <vehicle id="background.0" x="118.17" y="-1.60" angle="90.00" type="human" speed="12.72" pos="118.17" lane="e0_0" slope="0.00"/>
    </timestep>
    <timestep time="24.00">
        <vehicle id="background.0" x="124.34" y="-1.60" angle="90.00" type="human" speed="12.34" pos="124.34" lane="e0_0" slope="0.00"/>
    </timestep>
    <timestep time="24.50">
        <vehicle id="background.0" x="130.66" y="-1.60" angle="90.00" type="human" speed="12.63" pos="130.66" lane="e0_0" slope="0.00"/>
    </timestep>
    <timestep time="25.00">
        <vehicle id="background.0" x="136.87" y="-1.60" angle="90.00" type="human" speed="12.43" pos="136.87" lane="e0_0" slope="0.00"/>
    </timestep>
    <timestep time="25.50">
        <vehicle id="background.0" x="143.06" y="-1.60" angle="90.00" type="human" speed="12.38" pos="143.06" lane="e0_0" slope="0.00"/>
    </timestep>
    <timestep time="26.00">
        <vehicle id="background.0" x="149.38" y="-1.60" angle="90.00" type="human" speed="12.64" pos="149.38" lane="e0_0" slope="0.00"/>
        <vehicle id="background.1" x="5.10" y="-1.60" angle="90.00" type="human" speed="12.25" pos="5.10" lane="e0_0" slope="0.00"/>
    </timestep>
    <timestep time="26.50">
        <vehicle id="background.0" x="155.56" y="-1.60" angle="90.00" type="human" speed="12.36" pos="155.56" lane="e0_0" slope="0.00"/>
        <vehicle id="background.1" x="11.18" y="-1.60" angle="90.00" type="human" speed="12.16" pos="11.18" lane="e0_0" slope="0.00"/>
    </timestep>
    <timestep time="27.00">
        <vehicle id="background.0" x="161.76" y="-1.60" angle="90.00" type="human" speed="12.40" pos="161.76" lane="e0_0" slope="0.00"/>
        <vehicle id="background.1" x="17.17" y="-1.60" angle="90.00" type="human" speed="11.97" pos="17.17" lane="e0_0" slope="0.00"/>
    </timestep>
    <timestep time="27.50">
        <vehicle id="background.0" x="168.10" y="-1.60" angle="90.00" type="human" speed="12.68" pos="168.10" lane="e0_0" slope="0.00"/>
        <vehicle id="background.1" x="23.10" y="-1.60" angle="90.00" type="human" speed="11.86" pos="23.10" lane="e0_0" slope="0.00"/>
    </timestep>
    <timestep time="28.00">
        <vehicle id="background.0" x="174.29" y="-1.60" angle="90.00" type="human" speed="12.38" pos="174.29" lane="e0_0" slope="0.00"/>
        <vehicle id="background.1" x="29.14" y="-1.60" angle="90.00" type="human" speed="12.10" pos="29.14" lane="e0_0" slope="0.00"/>
    </timestep>
    <timestep time="28.50">
        <vehicle id="background.0" x="180.55" y="-1.60" angle="90.00" type="human" speed="12.52" pos="180.55" lane="e0_0" slope="0.00"/>
        <vehicle id="background.1" x="35.10" y="-1.60" angle="90.00" type="human" speed="11.92" pos="35.10" lane="e0_0" slope="0.00"/>
    </timestep>
    <timestep time="29.00">
        <vehicle id="background.0" x="186.88" y="-1.60" angle="90.00" type="human" speed="12.66" pos="186.88" lane="e0_0" slope="0.00"/>
        <vehicle id="background.1" x="41.15" y="-1.60" angle="90.00" type="human" speed="12.10" pos="41.15" lane="e0_0" slope="0.00"/>
        <vehicle id="background.2" x="5.10" y="-1.60" angle="90.00" type="human" speed="13.78" pos="5.10" lane="e0_0" slope="0.00"/>
    </timestep>
    <timestep time="29.50">
        <vehicle id="background.0" x="193.25" y="-1.60" angle="90.00" type="human" speed="12.75" pos="193.25" lane="e0_0" slope="0.00"/>
        <vehicle id="background.1" x="47.27" y="-1.60" angle="90.00" type="human" speed="12.23" pos="47.27" lane="e0_0" slope="0.00"/>
        <vehicle id="background.2" x="11.81" y="-1.60" angle="90.00" type="human" speed="13.42" pos="11.81" lane="e0_0" slope="0.00"/>
    </timestep>
    <timestep time="30.00">
        <vehicle id="background.0" x="199.43" y="-1.60" angle="90.00" type="human" speed="12.35" pos="199.43" lane="e0_0" slope="0.00"/>
        <vehicle id="background.1" x="53.33" y="-1.60" angle="90.00" type="human" speed="12.12" pos="53.33" lane="e0_0" slope="0.00"/>
        <vehicle id="background.2" x="18.66" y="-1.60" angle="90.00" type="human" speed="13.71" pos="18.66" lane="e0_0" slope="0.00"/>
    </timestep>
    <timestep time="30.50">
        <vehicle id="background.0" x="205.71" y="-1.60" angle="90.00" type="human" speed="12.56" pos="205.71" lane="e0_0" slope="0.00"/>
        <vehicle id="background.1" x="59.38" y="-1.60" angle="90.00" type="human" speed="12.11" pos="59.38" lane="e0_0" slope="0.00"/>
        <vehicle id="background.2" x="25.32" y="-1.60" angle="90.00" type="human" speed="13.31" pos="25.32" lane="e0_0" slope="0.00"/>
    </timestep>
    <timestep time="31.00">
        <vehicle id="background.0" x="211.98" y="-1.60" angle="90.00" type="human" speed="12.54" pos="211.98" lane="e0_0" slope="0.00"/>
        <vehicle id="background.1" x="65.44" y="-1.60" angle="90.00" type="human" speed="12.11" pos="65.44" lane="e0_0" slope="0.00"/>
        <vehicle id="background.2" x="32.07" y="-1.60" angle="90.00" type="human" speed="13.51" pos="32.07" lane="e0_0" slope="0.00"/>
    </timestep>
    <timestep time="31.50">
        <vehicle id="background.0" x="218.15" y="-1.60" angle="90.00" type="human" speed="12.33" pos="218.15" lane="e0_0" slope="0.00"/>
        <vehicle id="background.1" x="71.54" y="-1.60" angle="90.00" type="human" speed="12.21" pos="71.54" lane="e0_0" slope="0.00"/>
        <vehicle id="background.2" x="38.91" y="-1.60" angle="90.00" type="human" speed="13.69" pos="38.91" lane="e0_0" slope="0.00"/>
        <vehicle id="background.3" x="5.10" y="-1.60" angle="90.00" type="human" speed="12.43" pos="5.10" lane="e0_0" slope="0.00"/>
    </timestep>
    <timestep time="32.00">
        <vehicle id="background.0" x="224.52" y="-1.60" angle="90.00" type="human" speed="12.75" pos="224.52" lane="e0_0" slope="0.00"/>
        <vehicle id="background.1" x="77.64" y="-1.60" angle="90.00" type="human" speed="12.20" pos="77.64" lane="e0_0" slope="0.00"/>
        <vehicle id="background.2" x="45.62" y="-1.60" angle="90.00" type="human" speed="13.42" pos="45.62" lane="e0_0" slope="0.00"/>
        <vehicle id="background.3" x="11.09" y="-1.60" angle="90.00" type="human" speed="11.98" pos="11.09" lane="e0_0" slope="0.00"/>
    </timestep>
    <timestep time="32.50">
        <vehicle id="background.0" x="230.91" y="-1.60" angle="90.00" type="human" speed="12.77" pos="230.91" lane="e0_0" slope="0.00"/>
        <vehicle id="background.1" x="83.65" y="-1.60" angle="90.00" type="human" speed="12.01" pos="83.65" lane="e0_0" slope="0.00"/>
        <vehicle id="background.2" x="52.42" y="-1.60" angle="90.00" type="human" speed="13.60" pos="52.42" lane="e0_0" slope="0.00"/>
        <vehicle id="background.3" x="17.22" y="-1.60" angle="90.00" type="human" speed="12.26" pos="17.22" lane="e0_0" slope="0.00"/>
        <vehicle id="background.4" x="5.10" y="-1.60" angle="90.00" type="human" speed="9.88" pos="5.10" lane="e0_0" slope="0.00"/>
    </timestep>
    <timestep time="33.00">
        <vehicle id="background.0" x="237.32" y="-1.60" angle="90.00" type="human" speed="12.82" pos="237.32" lane="e0_0" slope="0.00"/>
        <vehicle id="background.1" x="89.58" y="-1.60" angle="90.00" type="human" speed="11.88" pos="89.58" lane="e0_0" slope="0.00"/>
        <vehicle id="background.2" x="59.19" y="-1.60" angle="90.00" type="human" speed="13.52" pos="59.19" lane="e0_0" slope="0.00"/>
        <vehicle id="background.3" x="23.29" y="-1.60" angle="90.00" type="human" speed="12.13" pos="23.29" lane="e0_0" slope="0.00"/>
        <vehicle id="background.4" x="9.98" y="-1.60" angle="90.00" type="human" speed="9.76" pos="9.98" lane="e0_0" slope="0.00"/>
    </timestep>
    <timestep time="33.50">
        <vehicle id="background.0" x="243.51" y="-1.60" angle="90.00" type="human" speed="12.39" pos="243.51" lane="e0_0" slope="0.00"/>
        <vehicle id="background.1" x="95.58" y="-1.60" angle="90.00" type="human" speed="11.99" pos="95.58" lane="e0_0" slope="0.00"/>
        <vehicle id="background.2" x="65.98" y="-1.60" angle="90.00" type="human" speed="13.58" pos="65.98" lane="e0_0" slope="0.00"/>
        <vehicle id="background.3" x="29.41" y="-1.60" angle="90.00" type="human" speed="12.25" pos="29.41" lane="e0_0" slope="0.00"/>
        <vehicle id="background.4" x="14.94" y="-1.60" angle="90.00" type="human" speed="9.92" pos="14.94" lane="e0_0" slope="0.00"/>
        <vehicle id="background.5" x="5.10" y="-1.60" angle="90.00" type="human" speed="7.07" pos="5.10" lane="e0_0" slope="0.00"/>
    </timestep>
    <timestep time="34.00">
        <vehicle id="background.0" x="249.84" y="-1.60" angle="90.00" type="human" speed="12.64" pos="249.84" lane="e0_0" slope="0.00"/>
        <vehicle id="background.1" x="101.62" y="-1.60" angle="90.00" type="human" speed="12.08" pos="101.62" lane="e0_0" slope="0.00"/>
        <vehicle id="background.2" x="72.76" y="-1.60" angle="90.00" type="human" speed="13.57" pos="72.76" lane="e0_0" slope="0.00"/>
        <vehicle id="background.3" x="35.56" y="-1.60" angle="90.00" type="human" speed="12.30" pos="35.56" lane="e0_0" slope="0.00"/>
        <vehicle id="background.4" x="20.12" y="-1.60" angle="90.00" type="human" speed="10.37" pos="20.12" lane="e0_0" slope="0.00"/>
        <vehicle id="background.5" x="8.47" y="-1.60" angle="90.00" type="human" speed="6.74" pos="8.47" lane="e0_0" slope="0.00"/>
    </timestep>
    <timestep time="34.50">
        <vehicle id="background.0" x="256.10" y="-1.60" angle="90.00" type="human" speed="12.53" pos="256.10" lane="e0_0" slope="0.00"/>
        <vehicle id="background.1" x="107.51" y="-1.60" angle="90.00" type="human" speed="11.79" pos="107.51" lane="e0_0" slope="0.00"/>
        <vehicle id="background.2" x="79.52" y="-1.60" angle="90.00" type="human" speed="13.51" pos="79.52" lane="e0_0" slope="0.00"/>
        <vehicle id="background.3" x="41.72" y="-1.60" angle="90.00" type="human" speed="12.33" pos="41.72" lane="e0_0" slope="0.00"/>
        <vehicle id="background.4" x="25.42" y="-1.60" angle="90.00" type="human" speed="10.60" pos="25.42" lane="e0_0" slope="0.00"/>
        <vehicle id="background.5" x="12.25" y="-1.60" angle="90.00" type="human" speed="7.57" pos="12.25" lane="e0_0" slope="0.00"/>
    </timestep>
    <timestep time="35.00">
        <vehicle id="background.0" x="262.44" y="-1.60" angle="90.00" type="human" speed="12.69" pos="262.44" lane="e0_0" slope="0.00"/>
        <vehicle id="background.1" x="113.39" y="-1.60" angle="90.00" type="human" speed="11.75" pos="113.39" lane="e0_0" slope="0.00"/>
        <vehicle id="background.2" x="86.39" y="-1.60" angle="90.00" type="human" speed="13.74" pos="86.39" lane="e0_0" slope="0.00"/>
        <vehicle id="background.3" x="47.82" y="-1.60" angle="90.00" type="human" speed="12.19" pos="47.82" lane="e0_0" slope="0.00"/>
        <vehicle id="background.4" x="30.92" y="-1.60" angle="90.00" type="human" speed="10.99" pos="30.92" lane="e0_0" slope="0.00"/>
        <vehicle id="background.5" x="16.43" y="-1.60" angle="90.00" type="human" speed="8.37" pos="16.43" lane="e0_0" slope="0.00"/>
    </timestep>
    <timestep time="35.50">
        <vehicle id="background.0" x="268.80" y="-1.60" angle="90.00" type="human" speed="12.72" pos="268.80" lane="e0_0" slope="0.00"/>
        <vehicle id="background.1" x="119.40" y="-1.60" angle="90.00" type="human" speed="12.02" pos="119.40" lane="e0_0" slope="0.00"/>
        <vehicle id="background.2" x="93.07" y="-1.60" angle="90.00" type="human" speed="13.37" pos="93.07" lane="e0_0" slope="0.00"/>
        <vehicle id="background.3" x="53.94" y="-1.60" angle="90.00" type="human" speed="12.24" pos="53.94" lane="e0_0" slope="0.00"/>
        <vehicle id="background.4" x="36.51" y="-1.60" angle="90.00" type="human" speed="11.19" pos="36.51" lane="e0_0" slope="0.00"/>
        <vehicle id="background.5" x="20.96" y="-1.60" angle="90.00" type="human" speed="9.05" pos="20.96" lane="e0_0" slope="0.00"/>
    </timestep>
    <timestep time="36.00">
        <vehicle id="background.0" x="275.05" y="-1.60" angle="90.00" type="human" speed="12.49" pos="275.05" lane="e0_0" slope="0.00"/>
        <vehicle id="background.1" x="125.39" y="-1.60" angle="90.00" type="human" speed="11.97" pos="125.39" lane="e0_0" slope="0.00"/>
        <vehicle id="background.2" x="99.74" y="-1.60" angle="90.00" type="human" speed="13.33" pos="99.74" lane="e0_0" slope="0.00"/>
        <vehicle id="background.3" x="60.12" y="-1.60" angle="90.00" type="human" speed="12.37" pos="60.12" lane="e0_0" slope="0.00"/>
        <vehicle id="background.4" x="42.13" y="-1.60" angle="90.00" type="human" speed="11.24" pos="42.13" lane="e0_0" slope="0.00"/>
        <vehicle id="background.5" x="25.95" y="-1.60" angle="90.00" type="human" speed="9.98" pos="25.95" lane="e0_0" slope="0.00"/>
    </timestep>
    <timestep time="36.50">
        <vehicle id="background.0" x="281.23" y="-1.60" angle="90.00" type="human" speed="12.36" pos="281.23" lane="e0_0" slope="0.00"/>
        <vehicle id="background.1" x="131.29" y="-1.60" angle="90.00" type="human" speed="11.80" pos="131.29" lane="e0_0" slope="0.00"/>
        <vehicle id="background.2" x="106.35" y="-1.60" angle="90.00" type="human" speed="13.22" pos="106.35" lane="e0_0" slope="0.00"/>
        <vehicle id="background.3" x="66.17" y="-1.60" angle="90.00" type="human" speed="12.10" pos="66.17" lane="e0_0" slope="0.00"/>
        <vehicle id="background.4" x="47.90" y="-1.60" angle="90.00" type="human" speed="11.54" pos="47.90" lane="e0_0" slope="0.00"/>
        <vehicle id="background.5" x="31.12" y="-1.60" angle="90.00" type="human" speed="10.34" pos="31.12" lane="e0_0" slope="0.00"/>
    </timestep>
    <timestep time="37.00">
        <vehicle id="background.0" x="287.39" y="-1.60" angle="90.00" type="human" speed="12.33" pos="287.39" lane="e0_0" slope="0.00"/>
        <vehicle id="background.1" x="137.20" y="-1.60" angle="90.00" type="human" speed="11.82" pos="137.20" lane="e0_0" slope="0.00"/>
        <vehicle id="background.2" x="112.99" y="-1.60" angle="90.00" type="human" speed="13.28" pos="112.99" lane="e0_0" slope="0.00"/>
        <vehicle id="background.3" x="72.21" y="-1.60" angle="90.00" type="human" speed="12.08" pos="72.21" lane="e0_0" slope="0.00"/>
        <vehicle id="background.4" x="53.62" y="-1.60" angle="90.00" type="human" speed="11.44" pos="53.62" lane="e0_0" slope="0.00"/>
        <vehicle id="background.5" x="36.38" y="-1.60" angle="90.00" type="human" speed="10.53" pos="36.38" lane="e0_0" slope="0.00"/>
    </timestep>
    <timestep time="37.50">
        <vehicle id="background.0" x="293.81" y="-1.60" angle="90.00" type="human" speed="12.82" pos="293.81" lane="e0_0" slope="0.00"/>
        <vehicle id="background.1" x="143.10" y="-1.60" angle="90.00" type="human" speed="11.80" pos="143.10" lane="e0_0" slope="0.00"/>
        <vehicle id="background.2" x="119.41" y="-1.60" angle="90.00" type="human" speed="12.85" pos="119.41" lane="e0_0" slope="0.00"/>
        <vehicle id="background.3" x="78.25" y="-1.60" angle="90.00" type="human" speed="12.07" pos="78.25" lane="e0_0" slope="0.00"/>
        <vehicle id="background.4" x="59.30" y="-1.60" angle="90.00" type="human" speed="11.36" pos="59.30" lane="e0_0" slope="0.00"/>
        <vehicle id="background.5" x="41.75" y="-1.60" angle="90.00" type="human" speed="10.74" pos="41.75" lane="e0_0" slope="0.00"/>
    </timestep>
    <timestep time="38.00">
        <vehicle id="background.0" x="300.12" y="-1.60" angle="90.00" type="human" speed="12.82" pos="0.12" lane="e1_0" slope="0.00"/>
        <vehicle id="background.1" x="149.13" y="-1.60" angle="90.00" type="human" speed="12.06" pos="149.13" lane="e0_0" slope="0.00"/>
        <vehicle id="background.2" x="125.86" y="-1.60" angle="90.00" type="human" speed="12.89" pos="125.86" lane="e0_0" slope="0.00"/>
        <vehicle id="background.3" x="84.35" y="-1.60" angle="90.00" type="human" speed="12.21" pos="84.35" lane="e0_0" slope="0.00"/>
        <vehicle id="background.4" x="65.24" y="-1.60" angle="90.00" type="human" speed="11.88" pos="65.24" lane="e0_0" slope="0.00"/>
        <vehicle id="background.5" x="47.11" y="-1.60" angle="90.00" type="human" speed="10.72" pos="47.11" lane="e0_0" slope="0.00"/>
    </timestep>
    <timestep time="38.50">
        <vehicle id="background.0" x="306.30" y="-1.60" angle="90.00" type="human" speed="12.37" pos="6.30" lane="e1_0" slope="0.00"/>
        <vehicle id="background.1" x="155.06" y="-1.60" angle="90.00" type="human" speed="11.85" pos="155.06" lane="e0_0" slope="0.00"/>
        <vehicle id="background.2" x="132.35" y="-1.60" angle="90.00" type="human" speed="12.97" pos="132.35" lane="e0_0" slope="0.00"/>
        <vehicle id="background.3" x="90.42" y="-1.60" angle="90.00" type="human" speed="12.14" pos="90.42" lane="e0_0" slope="0.00"/>
        <vehicle id="background.4" x="71.11" y="-1.60" angle="90.00" type="human" speed="11.75" pos="71.11" lane="e0_0" slope="0.00"/>
        <vehicle id="background.5" x="52.73" y="-1.60" angle="90.00" type="human" speed="11.24" pos="52.73" lane="e0_0" slope="0.00"/>
    </timestep>
    <timestep time="39.00">
        <vehicle id="background.0" x="312.51" y="-1.60" angle="90.00" type="human" speed="12.43" pos="12.51" lane="e1_0" slope="0.00"/>
        <vehicle id="background.1" x="161.01" y="-1.60" angle="90.00" type="human" speed="11.91" pos="161.01" lane="e0_0" slope="0.00"/>
        <vehicle id="background.2" x="138.53" y="-1.60" angle="90.00" type="human" speed="12.36" pos="138.53" lane="e0_0" slope="0.00"/>
        <vehicle id="background.3" x="96.45" y="-1.60" angle="90.00" type="human" speed="12.06" pos="96.45" lane="e0_0" slope="0.00"/>
        <vehicle id="background.4" x="76.99" y="-1.60" angle="90.00" type="human" speed="11.75" pos="76.99" lane="e0_0" slope="0.00"/>
        <vehicle id="background.5" x="58.48" y="-1.60" angle="90.00" type="human" speed="11.49" pos="58.48" lane="e0_0" slope="0.00"/>
    </timestep>
    <timestep time="39.50">
        <vehicle id="background.0" x="318.89" y="-1.60" angle="90.00" type="human" speed="12.75" pos="18.89" lane="e1_0" slope="0.00"/>
        <vehicle id="background.1" x="166.94" y="-1.60" angle="90.00" type="human" speed="11.85" pos="166.94" lane="e0_0" slope="0.00"/>
        <vehicle id="background.2" x="144.69" y="-1.60" angle="90.00" type="human" speed="12.32" pos="144.69" lane="e0_0" slope="0.00"/>
        <vehicle id="background.3" x="102.52" y="-1.60" angle="90.00" type="human" speed="12.14" pos="102.52" lane="e0_0" slope="0.00"/>
        <vehicle id="background.4" x="82.93" y="-1.60" angle="90.00" type="human" speed="11.87" pos="82.93" lane="e0_0" slope="0.00"/>
        <vehicle id="background.5" x="64.08" y="-1.60" angle="90.00" type="human" speed="11.20" pos="64.08" lane="e0_0" slope="0.00"/>
    </timestep>
    <timestep time="40.00">
        <vehicle id="background.0" x="325.14" y="-1.60" angle="90.00" type="human" speed="12.51" pos="25.14" lane="e1_0" slope="0.00"/>
        <vehicle id="background.1" x="172.83" y="-1.60" angle="90.00" type="human" speed="11.79" pos="172.83" lane="e0_0" slope="0.00"/>
        <vehicle id="background.2" x="150.92" y="-1.60" angle="90.00" type="human" speed="12.47" pos="150.92" lane="e0_0" slope="0.00"/>
        <vehicle id="background.3" x="108.53" y="-1.60" angle="90.00" type="human" speed="12.01" pos="108.53" lane="e0_0" slope="0.00"/>
        <vehicle id="background.4" x="88.93" y="-1.60" angle="90.00" type="human" speed="12.01" pos="88.93" lane="e0_0" slope="0.00"/>
        <vehicle id="background.5" x="69.76" y="-1.60" angle="90.00" type="human" speed="11.37" pos="69.76" lane="e0_0" slope="0.00"/>
    </timestep>
    <timestep time="40.50">
        <vehicle id="background.0" x="331.34" y="-1.60" angle="90.00" type="human" speed="12.40" pos="31.34" lane="e1_0" slope="0.00"/>
        <vehicle id="background.1" x="178.88" y="-1.60" angle="90.00" type="human" speed="12.10" pos="178.88" lane="e0_0" slope="0.00"/>
        <vehicle id="background.2" x="157.12" y="-1.60" angle="90.00" type="human" speed="12.39" pos="157.12" lane="e0_0" slope="0.00"/>
        <vehicle id="background.3" x="114.66" y="-1.60" angle="90.00" type="human" speed="12.27" pos="114.66" lane="e0_0" slope="0.00"/>
        <vehicle id="background.4" x="94.79" y="-1.60" angle="90.00" type="human" speed="11.71" pos="94.79" lane="e0_0" slope="0.00"/>
        <vehicle id="background.5" x="75.50" y="-1.60" angle="90.00" type="human" speed="11.48" pos="75.50" lane="e0_0" slope="0.00"/>
    </timestep>
    <timestep time="41.00">
        <vehicle id="background.0" x="337.51" y="-1.60" angle="90.00" type="human" speed="12.34" pos="37.51" lane="e1_0" slope="0.00"/>
        <vehicle id="background.1" x="184.79" y="-1.60" angle="90.00" type="human" speed="11.81" pos="184.79" lane="e0_0" slope="0.00"/>
        <vehicle id="background.2" x="163.35" y="-1.60" angle="90.00" type="human" speed="12.47" pos="163.35" lane="e0_0" slope="0.00"/>
        <vehicle id="background.3" x="120.67" y="-1.60" angle="90.00" type="human" speed="12.02" pos="120.67" lane="e0_0" slope="0.00"/>
        <vehicle id="background.4" x="100.91" y="-1.60" angle="90.00" type="human" speed="12.25" pos="100.91" lane="e0_0" slope="0.00"/>
        <vehicle id="background.5" x="81.12" y="-1.60" angle="90.00" type="human" speed="11.25" pos="81.12" lane="e0_0" slope="0.00"/>
    </timestep>
    <timestep time="41.50">
        <vehicle id="background.0" x="343.90" y="-1.60" angle="90.00" type="human" speed="12.79" pos="43.90" lane="e1_0" slope="0.00"/>
        <vehicle id="background.1" x="190.75" y="-1.60" angle="90.00" type="human" speed="11.92" pos="190.75" lane="e0_0" slope="0.00"/>
        <vehicle id="background.2" x="169.51" y="-1.60" angle="90.00" type="human" speed="12.31" pos="169.51" lane="e0_0" slope="0.00"/>
        <vehicle id="background.3" x="126.87" y="-1.60" angle="90.00" type="human" speed="12.40" pos="126.87" lane="e0_0" slope="0.00"/>
        <vehicle id="background.4" x="106.84" y="-1.60" angle="90.00" type="human" speed="11.85" pos="106.84" lane="e0_0" slope="0.00"/>
        <vehicle id="background.5" x="87.02" y="-1.60" angle="90.00" type="human" speed="11.79" pos="87.02" lane="e0_0" slope="0.00"/>
    </timestep>
    <timestep time="42.00">
        <vehicle id="background.1" x="196.68" y="-1.60" angle="90.00" type="human" speed="11.86" pos="196.68" lane="e0_0" slope="0.00"/>
        <vehicle id="background.2" x="175.58" y="-1.60" angle="90.00" type="human" speed="12.15" pos="175.58" lane="e0_0" slope="0.00"/>
        <vehicle id="background.3" x="133.03" y="-1.60" angle="90.00" type="human" speed="12.32" pos="133.03" lane="e0_0" slope="0.00"/>
        <vehicle id="background.4" x="112.87" y="-1.60" angle="90.00" type="human" speed="12.06" pos="112.87" lane="e0_0" slope="0.00"/>
        <vehicle id="background.5" x="92.82" y="-1.60" angle="90.00" type="human" speed="11.60" pos="92.82" lane="e0_0" slope="0.00"/>
    </timestep>
    <timestep time="42.50">
        <vehicle id="background.1" x="202.57" y="-1.60" angle="90.00" type="human" speed="11.78" pos="202.57" lane="e0_0" slope="0.00"/>
        <vehicle id="background.2" x="181.52" y="-1.60" angle="90.00" type="human" speed="11.87" pos="181.52" lane="e0_0" slope="0.00"/>
        <vehicle id="background.3" x="139.24" y="-1.60" angle="90.00" type="human" speed="12.41" pos="139.24" lane="e0_0" slope="0.00"/>
        <vehicle id="background.4" x="118.90" y="-1.60" angle="90.00" type="human" speed="12.07" pos="118.90" lane="e0_0" slope="0.00"/>
        <vehicle id="background.5" x="98.91" y="-1.60" angle="90.00" type="human" speed="12.17" pos="98.91" lane="e0_0" slope="0.00"/>
    </timestep>
    <timestep time="43.00">
        <vehicle id="background.1" x="208.46" y="-1.60" angle="90.00" type="human" speed="11.78" pos="208.46" lane="e0_0" slope="0.00"/>
        <vehicle id="background.2" x="187.48" y="-1.60" angle="90.00" type="human" speed="11.93" pos="187.48" lane="e0_0" slope="0.00"/>
        <vehicle id="background.3" x="145.44" y="-1.60" angle="90.00" type="human" speed="12.40" pos="145.44" lane="e0_0" slope="0.00"/>
        <vehicle id="background.4" x="125.03" y="-1.60" angle="90.00" type="human" speed="12.26" pos="125.03" lane="e0_0" slope="0.00"/>
        <vehicle id="background.5" x="104.94" y="-1.60" angle="90.00" type="human" speed="12.06" pos="104.94" lane="e0_0" slope="0.00"/>
    </timestep>
    <timestep time="43.50">
        <vehicle id="background.1" x="214.41" y="-1.60" angle="90.00" type="human" speed="11.91" pos="214.41" lane="e0_0" slope="0.00"/>
        <vehicle id="background.2" x="193.57" y="-1.60" angle="90.00" type="human" speed="12.18" pos="193.57" lane="e0_0" slope="0.00"/>