<?xml version="1.0" encoding="UTF-8"?>

<!-- generated on 2026-05-14 17:05:41 by Eclipse SUMO sumo Version 1.24.0
<sumoConfiguration xmlns:xsi="http://www.w3.org/2001/XMLSchema-instance" xsi:noNamespaceSchemaLocation="http://sumo.dlr.de/xsd/sumoConfiguration.xsd">

    <input>
        <net-file value="scenarios/simple_arterial/simple_arterial.net.xml"/>
        <route-files value="scenarios/simple_arterial/simple_arterial_glosa.rou.xml"/>
        <additional-files value="scenarios/simple_arterial/simple_arterial.tls.xml"/>
    </input>

    <output>
        <fcd-output value="runs/fcd_expert_glosa/episode_00018_seed_60.fcd.xml"/>
    </output>

    <time>
        <begin value="0"/>
        <end value="900"/>
        <step-length value="0.5"/>
    </time>

    <report>
        <no-warnings value="true"/>
    </report>

    <traci_server>
        <remote-port value="37703"/>
    </traci_server>

    <random_number>
        <seed value="60"/>
    </random_number>

</sumoConfiguration>
-->

<fcd-export xmlns:xsi="http://www.w3.org/2001/XMLSchema-instance" xsi:noNamespaceSchemaLocation="http://sumo.dlr.de/xsd/fcd_file.xsd">
    <timestep time="0.00"/>
    <timestep time="0.50"/>
    <timestep time="1.00"/>
    <timestep time="1.50"/>
    <timestep time="2.00"/>
    <timestep time="2.50"/>
    <timestep time="3.00"/>
    <timestep time="3.50"/>
    <timestep time="4.00"/>
    <timestep time="4.50"/>
    <timestep time="5.00"/>
    <timestep time="5.50"/>
    <timestep time="6.00"/>
    <timestep time="6.50"/>
    <timestep time="7.00">
        <vehicle id="background.0" x="5.10" y="-1.60" angle="90.00" type="human" speed="12.87" pos="5.10" lane="e0_0" slope="0.00"/>
    </timestep>
    <timestep time="7.50">
        <vehicle id="background.0" x="11.33" y="-1.60" angle="90.00" type="human" speed="12.46" pos="11.33" lane="e0_0" slope="0.00"/>
    </timestep>
    <timestep time="8.00">
        <vehicle id="background.0" x="17.55" y="-1.60" angle="90.00" type="human" speed="12.44" pos="17.55" lane="e0_0" slope="0.00"/>
    </timestep>
    <timestep time="8.50">
        <vehicle id="background.0" x="23.94" y="-1.60" angle="90.00" type="human" speed="12.78" pos="23.94" lane="e0_0" slope="0.00"/>
    </timestep>
    <timestep time="9.00">
        <vehicle id="background.0" x="30.36" y="-1.60" angle="90.00" type="human" speed="12.84" pos="30.36" lane="e0_0" slope="0.00"/>
    </timestep>
    <timestep time="9.50">
        <vehicle id="background.0" x="36.58" y="-1.60" angle="90.00" type="human" speed="12.44" pos="36.58" lane="e0_0" slope="0.00"/>
    </timestep>
    <timestep time="10.00">
        <vehicle id="background.0" x="42.88" y="-1.60" angle="90.00" type="human" speed="12.60" pos="42.88" lane="e0_0" slope="0.00"/>
    </timestep>
    <timestep time="10.50">
        <vehicle id="background.0" x="49.20" y="-1.60" angle="90.00" type="human" speed="12.62" pos="49.20" lane="e0_0" slope="0.00"/>
    </timestep>
    <timestep time="11.00">
        <vehicle id="background.0" x="55.51" y="-1.60" angle="90.00" type="human" speed="12.63" pos="55.51" lane="e0_0" slope="0.00"/>
    </timestep>
    <timestep time="11.50">
        <vehicle id="background.0" x="61.71" y="-1.60" angle="90.00" type="human" speed="12.39" pos="61.71" lane="e0_0" slope="0.00"/>
    </timestep>
    <timestep time="12.00">
        <vehicle id="background.0" x="68.01" y="-1.60" angle="90.00" type="human" speed="12.60" pos="68.01" lane="e0_0" slope="0.00"/>
    </timestep>
    <timestep time="12.50">
        <vehicle id="background.0" x="74.44" y="-1.60" angle="90.00" type="human" speed="12.87" pos="74.44" lane="e0_0" slope="0.00"/>
    </timestep>
    <timestep time="13.00">
        <vehicle id="background.0" x="80.82" y="-1.60" angle="90.00" type="human" speed="12.76" pos="80.82" lane="e0_0" slope="0.00"/>
    </timestep>
    <timestep time="13.50">
        <vehicle id="background.0" x="87.03" y="-1.60" angle="90.00" type="human" speed="12.41" pos="87.03" lane="e0_0" slope="0.00"/>
    </timestep>
    <timestep time="14.00">
        <vehicle id="background.0" x="93.29" y="-1.60" angle="90.00" type="human" speed="12.53" pos="93.29" lane="e0_0" slope="0.00"/>
    </timestep>
    <timestep time="14.50">
        <vehicle id="background.0" x="99.57" y="-1.60" angle="90.00" type="human" speed="12.56" pos="99.57" lane="e0_0" slope="0.00"/>
    </timestep>
    <timestep time="15.00">
        <vehicle id="background.0" x="105.78" y="-1.60" angle="90.00" type="human" speed="12.41" pos="105.78" lane="e0_0" slope="0.00"/>
    </timestep>
    <timestep time="15.50">
        <vehicle id="background.0" x="112.14" y="-1.60" angle="90.00" type="human" speed="12.72" pos="112.14" lane="e0_0" slope="0.00"/>
    </timestep>
    <timestep time="16.00">
        <vehicle id="background.0" x="118.46" y="-1.60" angle="90.00" type="human" speed="12.64" pos="118.46" lane="e0_0" slope="0.00"/>
    </timestep>
    <timestep time="16.50">
        <vehicle id="background.0" x="124.81" y="-1.60" angle="90.00" type="human" speed="12.70" pos="124.81" lane="e0_0" slope="0.00"/>
    </timestep>
    <timestep time="17.00">
        <vehicle id="background.0" x="131.01" y="-1.60" angle="90.00" type="human" speed="12.41" pos="131.01" lane="e0_0" slope="0.00"/>
    </timestep>
    <timestep time="17.50">
        <vehicle id="background.0" x="137.42" y="-1.60" angle="90.00" type="human" speed="12.80" pos="137.42" lane="e0_0" slope="0.00"/>
    </timestep>
    <timestep time="18.00">
        <vehicle id="background.0" x="143.80" y="-1.60" angle="90.00" type="human" speed="12.77" pos="143.80" lane="e0_0" slope="0.00"/>
    </timestep>
    <timestep time="18.50">
        <vehicle id="background.0" x="150.12" y="-1.60" angle="90.00" type="human" speed="12.63" pos="150.12" lane="e0_0" slope="0.00"/>
    </timestep>
    <timestep time="19.00">
        <vehicle id="background.0" x="156.33" y="-1.60" angle="90.00" type="human" speed="12.43" pos="156.33" lane="e0_0" slope="0.00"/>
    </timestep>
    <timestep time="19.50">
        <vehicle id="background.0" x="162.55" y="-1.60" angle="90.00" type="human" speed="12.43" pos="162.55" lane="e0_0" slope="0.00"/>
    </timestep>
    <timestep time="20.00">
        <vehicle id="background.0" x="168.97" y="-1.60" angle="90.00" type="human" speed="12.85" pos="168.97" lane="e0_0" slope="0.00"/>
    </timestep>
    <timestep time="20.50">
        <vehicle id="background.0" x="175.30" y="-1.60" angle="90.00" type="human" speed="12.65" pos="175.30" lane="e0_0" slope="0.00"/>
    </timestep>
    <timestep time="21.00">
        <vehicle id="background.0" x="181.59" y="-1.60" angle="90.00" type="human" speed="12.58" pos="181.59" lane="e0_0" slope="0.00"/>
    </timestep>
    <timestep time="21.50">
        <vehicle id="background.0" x="187.91" y="-1.60" angle="90.00" type="human" speed="12.64" pos="187.91" lane="e0_0" slope="0.00"/>
    </timestep>
    <timestep time="22.00">
        <vehicle id="background.0" x="194.21" y="-1.60" angle="90.00" type="human" speed="12.61" pos="194.21" lane="e0_0" slope="0.00"/>
    </timestep>
    <timestep time="22.50">
        <vehicle id="background.0" x="200.43" y="-1.60" angle="90.00" type="human" speed="12.43" pos="200.43" lane="e0_0" slope="0.00"/>
    </timestep>
    <timestep time="23.00">
        <vehicle id="background.0" x="206.76" y="-1.60" angle="90.00" type="human" speed="12.66" pos="206.76" lane="e0_0" slope="0.00"/>
    </timestep>
    <timestep time="23.50">
        <vehicle id="background.0" x="213.03" y="-1.60" angle="90.00" type="human" speed="12.54" pos="213.03" lane="e0_0" slope="0.00"/>
    </timestep>
    <timestep time="24.00">
        <vehicle id="background.0" x="219.31" y="-1.60" angle="90.00" type="human" speed="12.56" pos="219.31" lane="e0_0" slope="0.00"/>
    </timestep>
    <timestep time="24.50">
        <vehicle id="background.0" x="225.73" y="-1.60" angle="90.00" type="human" speed="12.83" pos="225.73" lane="e0_0" slope="0.00"/>
    </timestep>
    <timestep time="25.00">
        <vehicle id="background.0" x="232.10" y="-1.60" angle="90.00" type="human" speed="12.73" pos="232.10" lane="e0_0" slope="0.00"/>
    </timestep>
    <timestep time="25.50">
        <vehicle id="background.0" x="238.53" y="-1.60" angle="90.00" type="human" speed="12.86" pos="238.53" lane="e0_0" slope="0.00"/>
    </timestep>
    <timestep time="26.00">
        <vehicle id="background.0" x="244.72" y="-1.60" angle="90.00" type="human" speed="12.40" pos="244.72" lane="e0_0" slope="0.00"/>
    </timestep>
    <timestep time="26.50">
        <vehicle id="background.0" x="250.98" y="-1.60" angle="90.00" type="human" speed="12.51" pos="250.98" lane="e0_0" slope="0.00"/>
    </timestep>
    <timestep time="27.00">
        <vehicle id="background.0" x="257.39" y="-1.60" angle="90.00" type="human" speed="12.82" pos="257.39" lane="e0_0" slope="0.00"/>
    </timestep>
    <timestep time="27.50">
        <vehicle id="background.0" x="263.65" y="-1.60" angle="90.00" type="human" speed="12.52" pos="263.65" lane="e0_0" slope="0.00"/>
    </timestep>
    <timestep time="28.00">
        <vehicle id="background.0" x="269.90" y="-1.60" angle="90.00" type="human" speed="12.49" pos="269.90" lane="e0_0" slope="0.00"/>
    </timestep>
    <timestep time="28.50">
        <vehicle id="background.0" x="276.32" y="-1.60" angle="90.00" type="human" speed="12.85" pos="276.32" lane="e0_0" slope="0.00"/>
    </timestep>
    <timestep time="29.00">
        <vehicle id="background.0" x="282.56" y="-1.60" angle="90.00" type="human" speed="12.46" pos="282.56" lane="e0_0" slope="0.00"/>
    </timestep>
    <timestep time="29.50">
        <vehicle id="background.0" x="288.88" y="-1.60" angle="90.00" type="human" speed="12.64" pos="288.88" lane="e0_0" slope="0.00"/>
        <vehicle id="ego" x="5.10" y="-1.60" angle="90.00" type="ego_glosa_type" speed="0.00" pos="5.10" lane="e0_0" slope="0.00"/>
    </timestep>
    <timestep time="30.00">
        <vehicle id="background.0" x="295.10" y="-1.60" angle="90.00" type="human" speed="12.44" pos="295.10" lane="e0_0" slope="0.00"/>
        <vehicle id="ego" x="5.60" y="-1.60" angle="90.00" type="ego_glosa_type" speed="1.00" pos="5.60" lane="e0_0" slope="0.00"/>
    </timestep>
    <timestep time="30.50">
        <vehicle id="background.0" x="301.35" y="-1.60" angle="90.00" type="human" speed="12.71" pos="1.35" lane="e1_0" slope="0.00"/>
        <vehicle id="ego" x="6.60" y="-1.60" angle="90.00" type="ego_glosa_type" speed="2.00" pos="6.60" lane="e0_0" slope="0.00"/>
    </timestep>
    <timestep time="31.00">
        <vehicle id="background.0" x="307.78" y="-1.60" angle="90.00" type="human" speed="12.86" pos="7.78" lane="e1_0" slope="0.00"/>
        <vehicle id="ego" x="8.10" y="-1.60" angle="90.00" type="ego_glosa_type" speed="3.00" pos="8.10" lane="e0_0" slope="0.00"/>
    </timestep>
    <timestep time="31.50">
        <vehicle id="background.0" x="314.08" y="-1.60" angle="90.00" type="human" speed="12.60" pos="14.08" lane="e1_0" slope="0.00"/>
        <vehicle id="ego" x="10.10" y="-1.60" angle="90.00" type="ego_glosa_type" speed="4.00" pos="10.10" lane="e0_0" slope="0.00"/>
    </timestep>
    <timestep time="32.00">
        <vehicle id="background.0" x="320.40" y="-1.60" angle="90.00" type="human" speed="12.63" pos="20.40" lane="e1_0" slope="0.00"/>
        <vehicle id="ego" x="12.60" y="-1.60" angle="90.00" type="ego_glosa_type" speed="5.00" pos="12.60" lane="e0_0" slope="0.00"/>
    </timestep>
    <timestep time="32.50">
        <vehicle id="background.0" x="326.72" y="-1.60" angle="90.00" type="human" speed="12.64" pos="26.72" lane="e1_0" slope="0.00"/>
        <vehicle id="ego" x="15.60" y="-1.60" angle="90.00" type="ego_glosa_type" speed="6.00" pos="15.60" lane="e0_0" slope="0.00"/>
    </timestep>
    <timestep time="33.00">
        <vehicle id="background.0" x="332.94" y="-1.60" angle="90.00" type="human" speed="12.45" pos="32.94" lane="e1_0" slope="0.00"/>
        <vehicle id="ego" x="19.10" y="-1.60" angle="90.00" type="ego_glosa_type" speed="7.00" pos="19.10" lane="e0_0" slope="0.00"/>
    </timestep>
    <timestep time="33.50">
        <vehicle id="background.0" x="339.27" y="-1.60" angle="90.00" type="human" speed="12.65" pos="39.27" lane="e1_0" slope="0.00"/>
        <vehicle id="ego" x="23.10" y="-1.60" angle="90.00" type="ego_glosa_type" speed="8.00" pos="23.10" lane="e0_0" slope="0.00"/>
    </timestep>
    <timestep time="34.00">
        <vehicle id="background.0" x="345.60" y="-1.60" angle="90.00" type="human" speed="12.67" pos="45.60" lane="e1_0" slope="0.00"/>
        <vehicle id="background.1" x="5.10" y="-1.60" angle="90.00" type="human" speed="11.00" pos="5.10" lane="e0_0" slope="0.00"/>
        <vehicle id="ego" x="27.60" y="-1.60" angle="90.00" type="ego_glosa_type" speed="9.00" pos="27.60" lane="e0_0" slope="0.00"/>
    </timestep>
    <timestep time="34.50">
        <vehicle id="background.1" x="10.43" y="-1.60" angle="90.00" type="human" speed="10.67" pos="10.43" lane="e0_0" slope="0.00"/>
        <vehicle id="ego" x="32.60" y="-1.60" angle="90.00" type="ego_glosa_type" speed="10.00" pos="32.60" lane="e0_0" slope="0.00"/>
    </timestep>
    <timestep time="35.00">
        <vehicle id="background.1" x="16.13" y="-1.60" angle="90.00" type="human" speed="11.39" pos="16.13" lane="e0_0" slope="0.00"/>
        <vehicle id="ego" x="38.10" y="-1.60" angle="90.00" type="ego_glosa_type" speed="11.00" pos="38.10" lane="e0_0" slope="0.00"/>
    </timestep>
    <timestep time="35.50">
        <vehicle id="background.1" x="22.13" y="-1.60" angle="90.00" type="human" speed="12.01" pos="22.13" lane="e0_0" slope="0.00"/>
        <vehicle id="ego" x="44.10" y="-1.60" angle="90.00" type="ego_glosa_type" speed="12.00" pos="44.10" lane="e0_0" slope="0.00"/>
    </timestep>
    <timestep time="36.00">
        <vehicle id="background.1" x="28.28" y="-1.60" angle="90.00" type="human" speed="12.28" pos="28.28" lane="e0_0" slope="0.00"/>
        <vehicle id="background.2" x="5.10" y="-1.60" angle="90.00" type="human" speed="11.87" pos="5.10" lane="e0_0" slope="0.00"/>
        <vehicle id="ego" x="50.54" y="-1.60" angle="90.00" type="ego_glosa_type" speed="12.87" pos="50.54" lane="e0_0" slope="0.00"/>
    </timestep>
    <timestep time="36.50">
        <vehicle id="background.1" x="34.51" y="-1.60" angle="90.00" type="human" speed="12.47" pos="34.51" lane="e0_0" slope="0.00"/>
        <vehicle id="background.2" x="10.92" y="-1.60" angle="90.00" type="human" speed="11.64" pos="10.92" lane="e0_0" slope="0.00"/>
        <vehicle id="ego" x="56.97" y="-1.60" angle="90.00" type="ego_glosa_type" speed="12.87" pos="56.97" lane="e0_0" slope="0.00"/>
    </timestep>
    <timestep time="37.00">
        <vehicle id="background.1" x="40.88" y="-1.60" angle="90.00" type="human" speed="12.74" pos="40.88" lane="e0_0" slope="0.00"/>
        <vehicle id="background.2" x="16.75" y="-1.60" angle="90.00" type="human" speed="11.65" pos="16.75" lane="e0_0" slope="0.00"/>
        <vehicle id="ego" x="63.41" y="-1.60" angle="90.00" type="ego_glosa_type" speed="12.87" pos="63.41" lane="e0_0" slope="0.00"/>
    </timestep>
    <timestep time="37.50">
        <vehicle id="background.1" x="47.01" y="-1.60" angle="90.00" type="human" speed="12.27" pos="47.01" lane="e0_0" slope="0.00"/>
        <vehicle id="background.2" x="22.60" y="-1.60" angle="90.00" type="human" speed="11.71" pos="22.60" lane="e0_0" slope="0.00"/>
        <vehicle id="ego" x="69.85" y="-1.60" angle="90.00" type="ego_glosa_type" speed="12.87" pos="69.85" lane="e0_0" slope="0.00"/>
    </timestep>
    <timestep time="38.00">
        <vehicle id="background.1" x="53.28" y="-1.60" angle="90.00" type="human" speed="12.53" pos="53.28" lane="e0_0" slope="0.00"/>
        <vehicle id="background.2" x="28.50" y="-1.60" angle="90.00" type="human" speed="11.80" pos="28.50" lane="e0_0" slope="0.00"/>
        <vehicle id="ego" x="76.29" y="-1.60" angle="90.00" type="ego_glosa_type" speed="12.87" pos="76.29" lane="e0_0" slope="0.00"/>
    </timestep>
    <timestep time="38.50">
        <vehicle id="background.1" x="59.50" y="-1.60" angle="90.00" type="human" speed="12.45" pos="59.50" lane="e0_0" slope="0.00"/>
        <vehicle id="background.2" x="34.30" y="-1.60" angle="90.00" type="human" speed="11.60" pos="34.30" lane="e0_0" slope="0.00"/>
        <vehicle id="ego" x="82.72" y="-1.60" angle="90.00" type="ego_glosa_type" speed="12.87" pos="82.72" lane="e0_0" slope="0.00"/>
    </timestep>
    <timestep time="39.00">
        <vehicle id="background.1" x="65.69" y="-1.60" angle="90.00" type="human" speed="12.37" pos="65.69" lane="e0_0" slope="0.00"/>
        <vehicle id="background.2" x="40.06" y="-1.60" angle="90.00" type="human" speed="11.51" pos="40.06" lane="e0_0" slope="0.00"/>
        <vehicle id="ego" x="89.16" y="-1.60" angle="90.00" type="ego_glosa_type" speed="12.87" pos="89.16" lane="e0_0" slope="0.00"/>
    </timestep>
    <timestep time="39.50">
        <vehicle id="background.1" x="71.88" y="-1.60" angle="90.00" type="human" speed="12.38" pos="71.88" lane="e0_0" slope="0.00"/>
        <vehicle id="background.2" x="45.80" y="-1.60" angle="90.00" type="human" speed="11.50" pos="45.80" lane="e0_0" slope="0.00"/>
        <vehicle id="ego" x="95.60" y="-1.60" angle="90.00" type="ego_glosa_type" speed="12.87" pos="95.60" lane="e0_0" slope="0.00"/>
    </timestep>
    <timestep time="40.00">
        <vehicle id="background.1" x="78.18" y="-1.60" angle="90.00" type="human" speed="12.61" pos="78.18" lane="e0_0" slope="0.00"/>
        <vehicle id="background.2" x="51.68" y="-1.60" angle="90.00" type="human" speed="11.76" pos="51.68" lane="e0_0" slope="0.00"/>
        <vehicle id="ego" x="102.04" y="-1.60" angle="90.00" type="ego_glosa_type" speed="12.87" pos="102.04" lane="e0_0" slope="0.00"/>
    </timestep>
    <timestep time="40.50">
        <vehicle id="background.1" x="84.39" y="-1.60" angle="90.00" type="human" speed="12.41" pos="84.39" lane="e0_0" slope="0.00"/>
        <vehicle id="background.2" x="57.55" y="-1.60" angle="90.00" type="human" speed="11.74" pos="57.55" lane="e0_0" slope="0.00"/>
        <vehicle id="ego" x="108.47" y="-1.60" angle="90.00" type="ego_glosa_type" speed="12.87" pos="108.47" lane="e0_0" slope="0.00"/>
    </timestep>
    <timestep time="41.00">
        <vehicle id="background.1" x="90.58" y="-1.60" angle="90.00" type="human" speed="12.39" pos="90.58" lane="e0_0" slope="0.00"/>
        <vehicle id="background.2" x="63.41" y="-1.60" angle="90.00" type="human" speed="11.70" pos="63.41" lane="e0_0" slope="0.00"/>
        <vehicle id="ego" x="114.91" y="-1.60" angle="90.00" type="ego_glosa_type" speed="12.87" pos="114.91" lane="e0_0" slope="0.00"/>
    </timestep>
    <timestep time="41.50">
        <vehicle id="background.1" x="96.76" y="-1.60" angle="90.00" type="human" speed="12.36" pos="96.76" lane="e0_0" slope="0.00"/>
        <vehicle id="background.2" x="69.30" y="-1.60" angle="90.00" type="human" speed="11.79" pos="69.30" lane="e0_0" slope="0.00"/>
        <vehicle id="ego" x="121.35" y="-1.60" angle="90.00" type="ego_glosa_type" speed="12.87" pos="121.35" lane="e0_0" slope="0.00"/>
    </timestep>
    <timestep time="42.00">
        <vehicle id="background.1" x="102.98" y="-1.60" angle="90.00" type="human" speed="12.44" pos="102.98" lane="e0_0" slope="0.00"/>
        <vehicle id="background.2" x="75.18" y="-1.60" angle="90.00" type="human" speed="11.77" pos="75.18" lane="e0_0" slope="0.00"/>
        <vehicle id="ego" x="127.79" y="-1.60" angle="90.00" type="ego_glosa_type" speed="12.87" pos="127.79" lane="e0_0" slope="0.00"/>
    </timestep>
    <timestep time="42.50">
        <vehicle id="background.1" x="109.14" y="-1.60" angle="90.00" type="human" speed="12.32" pos="109.14" lane="e0_0" slope="0.00"/>
        <vehicle id="background.2" x="80.93" y="-1.60" angle="90.00" type="human" speed="11.49" pos="80.93" lane="e0_0" slope="0.00"/>
        <vehicle id="ego" x="134.22" y="-1.60" angle="90.00" type="ego_glosa_type" speed="12.87" pos="134.22" lane="e0_0" slope="0.00"/>
    </timestep>
    <timestep time="43.00">
        <vehicle id="background.1" x="115.46" y="-1.60" angle="90.00" type="human" speed="12.63" pos="115.46" lane="e0_0" slope="0.00"/>
        <vehicle id="background.2" x="86.67" y="-1.60" angle="90.00" type="human" speed="11.49" pos="86.67" lane="e0_0" slope="0.00"/>
        <vehicle id="ego" x="140.66" y="-1.60" angle="90.00" type="ego_glosa_type" speed="12.87" pos="140.66" lane="e0_0" slope="0.00"/>
    </timestep>
    <timestep time="43.50">
        <vehicle id="background.1" x="121.66" y="-1.60" angle="90.00" type="human" speed="12.41" pos="121.66" lane="e0_0" slope="0.00"/>
        <vehicle id="background.2" x="92.49" y="-1.60" angle="90.00" type="human" speed="11.63" pos="92.49" lane="e0_0" slope="0.00"/>
        <vehicle id="ego" x="147.10" y="-1.60" angle="90.00" type="ego_glosa_type" speed="12.87" pos="147.10" lane="e0_0" slope="0.00"/>
    </timestep>
    <timestep time="44.00">
        <vehicle id="background.1" x="127.96" y="-1.60" angle="90.00" type="human" speed="12.59" pos="127.96" lane="e0_0" slope="0.00"/>
        <vehicle id="background.2" x="98.36" y="-1.60" angle="90.00" type="human" speed="11.75" pos="98.36" lane="e0_0" slope="0.00"/>
        <vehicle id="ego" x="153.53" y="-1.60" angle="90.00" type="ego_glosa_type" speed="12.87" pos="153.53" lane="e0_0" slope="0.00"/>
    </timestep>
    <timestep time="44.50">
        <vehicle id="background.1" x="134.09" y="-1.60" angle="90.00" type="human" speed="12.27" pos="134.09" lane="e0_0" slope="0.00"/>
        <vehicle id="background.2" x="104.27" y="-1.60" angle="90.00" type="human" speed="11.82" pos="104.27" lane="e0_0" slope="0.00"/>
        <vehicle id="ego" x="159.97" y="-1.60" angle="90.00" type="ego_glosa_type" speed="12.87" pos="159.97" lane="e0_0" slope="0.00"/>
    </timestep>
    <timestep time="45.00">
        <vehicle id="background.1" x="140.46" y="-1.60" angle="90.00" type="human" speed="12.74" pos="140.46" lane="e0_0" slope="0.00"/>
        <vehicle id="background.2" x="109.98" y="-1.60" angle="90.00" type="human" speed="11.41" pos="109.98" lane="e0_0" slope="0.00"/>
        <vehicle id="ego" x="166.41" y="-1.60" angle="90.00" type="ego_glosa_type" speed="12.87" pos="166.41" lane="e0_0" slope="0.00"/>
    </timestep>
    <timestep time="45.50">
        <vehicle id="background.1" x="146.63" y="-1.60" angle="90.00" type="human" speed="12.34" pos="146.63" lane="e0_0" slope="0.00"/>
        <vehicle id="background.2" x="115.88" y="-1.60" angle="90.00" type="human" speed="11.80" pos="115.88" lane="e0_0" slope="0.00"/>
        <vehicle id="ego" x="172.85" y="-1.60" angle="90.00" type="ego_glosa_type" speed="12.87" pos="172.85" lane="e0_0" slope="0.00"/>
    </timestep>
    <timestep time="46.00">
        <vehicle id="background.1" x="152.93" y="-1.60" angle="90.00" type="human" speed="12.59" pos="152.93" lane="e0_0" slope="0.00"/>
        <vehicle id="background.2" x="121.69" y="-1.60" angle="90.00" type="human" speed="11.61" pos="121.69" lane="e0_0" slope="0.00"/>
        <vehicle id="ego" x="179.28" y="-1.60" angle="90.00" type="ego_glosa_type" speed="12.87" pos="179.28" lane="e0_0" slope="0.00"/>
    </timestep>
    <timestep time="46.50">
        <vehicle id="background.1" x="159.27" y="-1.60" angle="90.00" type="human" speed="12.69" pos="159.27" lane="e0_0" slope="0.00"/>
        <vehicle id="background.2" x="127.59" y="-1.60" angle="90.00" type="human" speed="11.81" pos="127.59" lane="e0_0" slope="0.00"/>
        <vehicle id="ego" x="185.72" y="-1.60" angle="90.00" type="ego_glosa_type" speed="12.87" pos="185.72" lane="e0_0" slope="0.00"/>
    </timestep>
    <timestep time="47.00">
        <vehicle id="background.1" x="165.48" y="-1.60" angle="90.00" type="human" speed="12.42" pos="165.48" lane="e0_0" slope="0.00"/>
        <vehicle id="background.2" x="133.32" y="-1.60" angle="90.00" type="human" speed="11.46" pos="133.32" lane="e0_0" slope="0.00"/>
        <vehicle id="ego" x="192.16" y="-1.60" angle="90.00" type="ego_glosa_type" speed="12.87" pos="192.16" lane="e0_0" slope="0.00"/>
    </timestep>
    <timestep time="47.50">
        <vehicle id="background.1" x="171.63" y="-1.60" angle="90.00" type="human" speed="12.29" pos="171.63" lane="e0_0" slope="0.00"/>
        <vehicle id="background.2" x="139.08" y="-1.60" angle="90.00" type="human" speed="11.51" pos="139.08" lane="e0_0" slope="0.00"/>
        <vehicle id="ego" x="198.60" y="-1.60" angle="90.00" type="ego_glosa_type" speed="12.87" pos="198.60" lane="e0_0" slope="0.00"/>
    </timestep>
    <timestep time="48.00">
        <vehicle id="background.1" x="177.90" y="-1.60" angle="90.00" type="human" speed="12.54" pos="177.90" lane="e0_0" slope="0.00"/>
        <vehicle id="background.2" x="144.93" y="-1.60" angle="90.00" type="human" speed="11.70" pos="144.93" lane="e0_0" slope="0.00"/>
        <vehicle id="ego" x="205.03" y="-1.60" angle="90.00" type="ego_glosa_type" speed="12.87" pos="205.03" lane="e0_0" slope="0.00"/>
    </timestep>
    <timestep time="48.50">
        <vehicle id="background.1" x="184.14" y="-1.60" angle="90.00" type="human" speed="12.47" pos="184.14" lane="e0_0" slope="0.00"/>
        <vehicle id="background.2" x="150.80" y="-1.60" angle="90.00" type="human" speed="11.75" pos="150.80" lane="e0_0" slope="0.00"/>
        <vehicle id="ego" x="211.47" y="-1.60" angle="90.00" type="ego_glosa_type" speed="12.87" pos="211.47" lane="e0_0" slope="0.00"/>
    </timestep>
    <timestep time="49.00">
        <vehicle id="background.1" x="190.48" y="-1.60" angle="90.00" type="human" speed="12.69" pos="190.48" lane="e0_0" slope="0.00"/>
        <vehicle id="background.2" x="156.71" y="-1.60" angle="90.00" type="human" speed="11.82" pos="156.71" lane="e0_0" slope="0.00"/>
        <vehicle id="ego" x="217.91" y="-1.60" angle="90.00" type="ego_glosa_type" speed="12.87" pos="217.91" lane="e0_0" slope="0.00"/>
    </timestep>
    <timestep time="49.50">
        <vehicle id="background.1" x="196.67" y="-1.60" angle="90.00" type="human" speed="12.38" pos="196.67" lane="e0_0" slope="0.00"/>
        <vehicle id="background.2" x="162.48" y="-1.60" angle="90.00" type="human" speed="11.54" pos="162.48" lane="e0_0" slope="0.00"/>
        <vehicle id="ego" x="224.34" y="-1.60" angle="90.00" type="ego_glosa_type" speed="12.87" pos="224.34" lane="e0_0" slope="0.00"/>
    </timestep>
    <timestep time="50.00">
        <vehicle id="background.1" x="202.97" y="-1.60" angle="90.00" type="human" speed="12.59" pos="202.97" lane="e0_0" slope="0.00"/>
        <vehicle id="background.2" x="168.19" y="-1.60" angle="90.00" type="human" speed="11.43" pos="168.19" lane="e0_0" slope="0.00"/>
        <vehicle id="ego" x="230.78" y="-1.60" angle="90.00" type="ego_glosa_type" speed="12.87" pos="230.78" lane="e0_0" slope="0.00"/>
    </timestep>
    <timestep time="50.50">
        <vehicle id="background.1" x="209.33" y="-1.60" angle="90.00" type="human" speed="12.74" pos="209.33" lane="e0_0" slope="0.00"/>
        <vehicle id="background.2" x="173.93" y="-1.60" angle="90.00" type="human" speed="11.48" pos="173.93" lane="e0_0" slope="0.00"/>
        <vehicle id="ego" x="237.22" y="-1.60" angle="90.00" type="ego_glosa_type" speed="12.87" pos="237.22" lane="e0_0" slope="0.00"/>
    </timestep>
    <timestep time="51.00">
        <vehicle id="background.1" x="215.59" y="-1.60" angle="90.00" type="human" speed="12.52" pos="215.59" lane="e0_0" slope="0.00"/>
        <vehicle id="background.2" x="179.66" y="-1.60" angle="90.00" type="human" speed="11.45" pos="179.66" lane="e0_0" slope="0.00"/>
        <vehicle id="ego" x="243.66" y="-1.60" angle="90.00" type="ego_glosa_type" speed="12.87" pos="243.66" lane="e0_0" slope="0.00"/>
    </timestep>
    <timestep time="51.50">
        <vehicle id="background.1" x="221.77" y="-1.60" angle="90.00" type="human" speed="12.35" pos="221.77" lane="e0_0" slope="0.00"/>
        <vehicle id="background.2" x="185.56" y="-1.60" angle="90.00" type="human" speed="11.81" pos="185.56" lane="e0_0" slope="0.00"/>
        <vehicle id="ego" x="250.09" y="-1.60" angle="90.00" type="ego_glosa_type" speed="12.87" pos="250.09" lane="e0_0" slope="0.00"/>
    </timestep>
    <timestep time="52.00">
        <vehicle id="background.1" x="227.90" y="-1.60" angle="90.00" type="human" speed="12.27" pos="227.90" lane="e0_0" slope="0.00"/>
        <vehicle id="background.2" x="191.44" y="-1.60" angle="90.00" type="human" speed="11.76" pos="191.44" lane="e0_0" slope="0.00"/>
        <vehicle id="ego" x="256.53" y="-1.60" angle="90.00" type="ego_glosa_type" speed="12.87" pos="256.53" lane="e0_0" slope="0.00"/>
    </timestep>
    <timestep time="52.50">
        <vehicle id="background.1" x="234.17" y="-1.60" angle="90.00" type="human" speed="12.54" pos="234.17" lane="e0_0" slope="0.00"/>
        <vehicle id="background.2" x="197.33" y="-1.60" angle="90.00" type="human" speed="11.77" pos="197.33" lane="e0_0" slope="0.00"/>
        <vehicle id="ego" x="262.97" y="-1.60" angle="90.00" type="ego_glosa_type" speed="12.87" pos="262.97" lane="e0_0" slope="0.00"/>
    </timestep>
    <timestep time="53.00">
        <vehicle id="background.1" x="240.39" y="-1.60" angle="90.00" type="human" speed="12.43" pos="240.39" lane="e0_0" slope="0.00"/>
        <vehicle id="background.2" x="203.21" y="-1.60" angle="90.00" type="human" speed="11.77" pos="203.21" lane="e0_0" slope="0.00"/>
        <vehicle id="ego" x="269.41" y="-1.60" angle="90.00" type="ego_glosa_type" speed="12.87" pos="269.41" lane="e0_0" slope="0.00"/>
    </timestep>
    <timestep time="53.50">
        <vehicle id="background.1" x="246.76" y="-1.60" angle="90.00" type="human" speed="12.75" pos="246.76" lane="e0_0" slope="0.00"/>
        <vehicle id="background.2" x="209.14" y="-1.60" angle="90.00" type="human" speed="11.86" pos="209.14" lane="e0_0" slope="0.00"/>