<?xml version="1.0" encoding="UTF-8"?>

<!-- generated on 2026-05-13 21:24:26 by Eclipse SUMO sumo Version 1.24.0
<sumoConfiguration xmlns:xsi="http://www.w3.org/2001/XMLSchema-instance" xsi:noNamespaceSchemaLocation="http://sumo.dlr.de/xsd/sumoConfiguration.xsd">

    <input>
        <net-file value="scenarios/simple_arterial/simple_arterial.net.xml"/>
        <route-files value="scenarios/simple_arterial/simple_arterial_glosa.rou.xml"/>
        <additional-files value="scenarios/simple_arterial/simple_arterial.tls.xml"/>
    </input>

    <output>
        <fcd-output value="runs/fcd_expert_glosa/episode_00016_seed_58.fcd.xml"/>
    </output>

    <time>
        <begin value="0"/>
        <end value="900"/>
        <step-length value="0.5"/>
    </time>

    <report>
        <no-warnings value="true"/>
    </report>

    <traci_server>
        <remote-port value="27311"/>
    </traci_server>

    <random_number>
        <seed value="58"/>
    </random_number>

</sumoConfiguration>
-->

<fcd-export xmlns:xsi="http://www.w3.org/2001/XMLSchema-instance" xsi:noNamespaceSchemaLocation="http://sumo.dlr.de/xsd/fcd_file.xsd">
    <timestep time="0.00"/>
    <timestep time="0.50"/>
    <timestep time="1.00"/>
    <timestep time="1.50"/>
    <timestep time="2.00"/>
    <timestep time="2.50"/>
    <timestep time="3.00"/>
    <timestep time="3.50"/>
    <timestep time="4.00"/>
    <timestep time="4.50"/>
    <timestep time="5.00"/>
    <timestep time="5.50"/>
    <timestep time="6.00"/>
    <timestep time="6.50"/>
    <timestep time="7.00"/>
    <timestep time="7.50"/>
    <timestep time="8.00"/>
    <timestep time="8.50"/>
    <timestep time="9.00"/>
    <timestep time="9.50"/>
    <timestep time="10.00"/>
    <timestep time="10.50"/>
    <timestep time="11.00"/>
    <timestep time="11.50"/>
    <timestep time="12.00"/>
    <timestep time="12.50"/>
    <timestep time="13.00"/>
    <timestep time="13.50"/>
    <timestep time="14.00"/>
    <timestep time="14.50"/>
    <timestep time="15.00"/>
    <timestep time="15.50"/>
    <timestep time="16.00"/>
    <timestep time="16.50"/>
    <timestep time="17.00"/>
    <timestep time="17.50"/>
    <timestep time="18.00"/>
    <timestep time="18.50"/>
    <timestep time="19.00"/>
    <timestep time="19.50"/>
    <timestep time="20.00"/>
    <timestep time="20.50"/>
    <timestep time="21.00"/>
    <timestep time="21.50"/>
    <timestep time="22.00"/>
    <timestep time="22.50"/>
    <timestep time="23.00"/>
    <timestep time="23.50"/>
    <timestep time="24.00"/>
    <timestep time="24.50"/>
    <timestep time="25.00"/>
    <timestep time="25.50"/>
    <timestep time="26.00"/>
    <timestep time="26.50"/>
    <timestep time="27.00"/>
    <timestep time="27.50"/>
    <timestep time="28.00">
        <vehicle id="ego" x="5.10" y="-1.60" angle="90.00" type="ego_glosa_type" speed="0.00" pos="5.10" lane="e0_0" slope="0.00"/>
    </timestep>
    <timestep time="28.50">
        <vehicle id="ego" x="5.60" y="-1.60" angle="90.00" type="ego_glosa_type" speed="1.00" pos="5.60" lane="e0_0" slope="0.00"/>
    </timestep>
    <timestep time="29.00">
        <vehicle id="ego" x="6.60" y="-1.60" angle="90.00" type="ego_glosa_type" speed="2.00" pos="6.60" lane="e0_0" slope="0.00"/>
    </timestep>
    <timestep time="29.50">
        <vehicle id="ego" x="8.10" y="-1.60" angle="90.00" type="ego_glosa_type" speed="3.00" pos="8.10" lane="e0_0" slope="0.00"/>
    </timestep>
    <timestep time="30.00">
        <vehicle id="ego" x="10.10" y="-1.60" angle="90.00" type="ego_glosa_type" speed="4.00" pos="10.10" lane="e0_0" slope="0.00"/>
    </timestep>
    <timestep time="30.50">
        <vehicle id="ego" x="12.40" y="-1.60" angle="90.00" type="ego_glosa_type" speed="4.59" pos="12.40" lane="e0_0" slope="0.00"/>
    </timestep>
    <timestep time="31.00">
        <vehicle id="background.0" x="5.10" y="-1.60" angle="90.00" type="human" speed="2.96" pos="5.10" lane="e0_0" slope="0.00"/>
        <vehicle id="ego" x="14.69" y="-1.60" angle="90.00" type="ego_glosa_type" speed="4.59" pos="14.69" lane="e0_0" slope="0.00"/>
    </timestep>
    <timestep time="31.50">
        <vehicle id="background.0" x="6.48" y="-1.60" angle="90.00" type="human" speed="2.76" pos="6.48" lane="e0_0" slope="0.00"/>
        <vehicle id="ego" x="16.99" y="-1.60" angle="90.00" type="ego_glosa_type" speed="4.59" pos="16.99" lane="e0_0" slope="0.00"/>
    </timestep>
    <timestep time="32.00">
        <vehicle id="background.0" x="8.09" y="-1.60" angle="90.00" type="human" speed="3.22" pos="8.09" lane="e0_0" slope="0.00"/>
        <vehicle id="ego" x="19.29" y="-1.60" angle="90.00" type="ego_glosa_type" speed="4.59" pos="19.29" lane="e0_0" slope="0.00"/>
    </timestep>
    <timestep time="32.50">
        <vehicle id="background.0" x="9.87" y="-1.60" angle="90.00" type="human" speed="3.56" pos="9.87" lane="e0_0" slope="0.00"/>
        <vehicle id="ego" x="21.58" y="-1.60" angle="90.00" type="ego_glosa_type" speed="4.59" pos="21.58" lane="e0_0" slope="0.00"/>
    </timestep>
    <timestep time="33.00">
        <vehicle id="background.0" x="12.00" y="-1.60" angle="90.00" type="human" speed="4.27" pos="12.00" lane="e0_0" slope="0.00"/>
        <vehicle id="ego" x="23.88" y="-1.60" angle="90.00" type="ego_glosa_type" speed="4.59" pos="23.88" lane="e0_0" slope="0.00"/>
    </timestep>
    <timestep time="33.50">
        <vehicle id="background.0" x="14.11" y="-1.60" angle="90.00" type="human" speed="4.21" pos="14.11" lane="e0_0" slope="0.00"/>
        <vehicle id="ego" x="26.17" y="-1.60" angle="90.00" type="ego_glosa_type" speed="4.59" pos="26.17" lane="e0_0" slope="0.00"/>
    </timestep>
    <timestep time="34.00">
        <vehicle id="background.0" x="16.19" y="-1.60" angle="90.00" type="human" speed="4.16" pos="16.19" lane="e0_0" slope="0.00"/>
        <vehicle id="ego" x="28.47" y="-1.60" angle="90.00" type="ego_glosa_type" speed="4.59" pos="28.47" lane="e0_0" slope="0.00"/>
    </timestep>
    <timestep time="34.50">
        <vehicle id="background.0" x="18.52" y="-1.60" angle="90.00" type="human" speed="4.66" pos="18.52" lane="e0_0" slope="0.00"/>
        <vehicle id="ego" x="30.77" y="-1.60" angle="90.00" type="ego_glosa_type" speed="4.59" pos="30.77" lane="e0_0" slope="0.00"/>
    </timestep>
    <timestep time="35.00">
        <vehicle id="background.0" x="20.67" y="-1.60" angle="90.00" type="human" speed="4.31" pos="20.67" lane="e0_0" slope="0.00"/>
        <vehicle id="ego" x="33.06" y="-1.60" angle="90.00" type="ego_glosa_type" speed="4.59" pos="33.06" lane="e0_0" slope="0.00"/>
    </timestep>
    <timestep time="35.50">
        <vehicle id="background.0" x="22.89" y="-1.60" angle="90.00" type="human" speed="4.43" pos="22.89" lane="e0_0" slope="0.00"/>
        <vehicle id="ego" x="35.36" y="-1.60" angle="90.00" type="ego_glosa_type" speed="4.59" pos="35.36" lane="e0_0" slope="0.00"/>
    </timestep>
    <timestep time="36.00">
        <vehicle id="background.0" x="25.05" y="-1.60" angle="90.00" type="human" speed="4.33" pos="25.05" lane="e0_0" slope="0.00"/>
        <vehicle id="ego" x="37.66" y="-1.60" angle="90.00" type="ego_glosa_type" speed="4.59" pos="37.66" lane="e0_0" slope="0.00"/>
    </timestep>
    <timestep time="36.50">
        <vehicle id="background.0" x="27.34" y="-1.60" angle="90.00" type="human" speed="4.58" pos="27.34" lane="e0_0" slope="0.00"/>
        <vehicle id="ego" x="39.95" y="-1.60" angle="90.00" type="ego_glosa_type" speed="4.59" pos="39.95" lane="e0_0" slope="0.00"/>
    </timestep>
    <timestep time="37.00">
        <vehicle id="background.0" x="29.73" y="-1.60" angle="90.00" type="human" speed="4.78" pos="29.73" lane="e0_0" slope="0.00"/>
        <vehicle id="ego" x="42.25" y="-1.60" angle="90.00" type="ego_glosa_type" speed="4.59" pos="42.25" lane="e0_0" slope="0.00"/>
    </timestep>
    <timestep time="37.50">
        <vehicle id="background.0" x="32.11" y="-1.60" angle="90.00" type="human" speed="4.75" pos="32.11" lane="e0_0" slope="0.00"/>
        <vehicle id="ego" x="44.55" y="-1.60" angle="90.00" type="ego_glosa_type" speed="4.59" pos="44.55" lane="e0_0" slope="0.00"/>
    </timestep>
    <timestep time="38.00">
        <vehicle id="background.0" x="34.31" y="-1.60" angle="90.00" type="human" speed="4.40" pos="34.31" lane="e0_0" slope="0.00"/>
        <vehicle id="ego" x="46.84" y="-1.60" angle="90.00" type="ego_glosa_type" speed="4.59" pos="46.84" lane="e0_0" slope="0.00"/>
    </timestep>
    <timestep time="38.50">
        <vehicle id="background.0" x="36.48" y="-1.60" angle="90.00" type="human" speed="4.35" pos="36.48" lane="e0_0" slope="0.00"/>
        <vehicle id="ego" x="49.14" y="-1.60" angle="90.00" type="ego_glosa_type" speed="4.59" pos="49.14" lane="e0_0" slope="0.00"/>
    </timestep>
    <timestep time="39.00">
        <vehicle id="background.0" x="38.77" y="-1.60" angle="90.00" type="human" speed="4.57" pos="38.77" lane="e0_0" slope="0.00"/>
        <vehicle id="ego" x="51.44" y="-1.60" angle="90.00" type="ego_glosa_type" speed="4.59" pos="51.44" lane="e0_0" slope="0.00"/>
    </timestep>
    <timestep time="39.50">
        <vehicle id="background.0" x="41.05" y="-1.60" angle="90.00" type="human" speed="4.55" pos="41.05" lane="e0_0" slope="0.00"/>
        <vehicle id="ego" x="53.73" y="-1.60" angle="90.00" type="ego_glosa_type" speed="4.59" pos="53.73" lane="e0_0" slope="0.00"/>
    </timestep>
    <timestep time="40.00">
        <vehicle id="background.0" x="43.38" y="-1.60" angle="90.00" type="human" speed="4.67" pos="43.38" lane="e0_0" slope="0.00"/>
        <vehicle id="ego" x="56.03" y="-1.60" angle="90.00" type="ego_glosa_type" speed="4.59" pos="56.03" lane="e0_0" slope="0.00"/>
    </timestep>
    <timestep time="40.50">
        <vehicle id="background.0" x="45.75" y="-1.60" angle="90.00" type="human" speed="4.74" pos="45.75" lane="e0_0" slope="0.00"/>
        <vehicle id="ego" x="58.33" y="-1.60" angle="90.00" type="ego_glosa_type" speed="4.59" pos="58.33" lane="e0_0" slope="0.00"/>
    </timestep>
    <timestep time="41.00">
        <vehicle id="background.0" x="48.02" y="-1.60" angle="90.00" type="human" speed="4.54" pos="48.02" lane="e0_0" slope="0.00"/>
        <vehicle id="ego" x="60.62" y="-1.60" angle="90.00" type="ego_glosa_type" speed="4.59" pos="60.62" lane="e0_0" slope="0.00"/>
    </timestep>
    <timestep time="41.50">
        <vehicle id="background.0" x="50.44" y="-1.60" angle="90.00" type="human" speed="4.83" pos="50.44" lane="e0_0" slope="0.00"/>
        <vehicle id="ego" x="62.92" y="-1.60" angle="90.00" type="ego_glosa_type" speed="4.59" pos="62.92" lane="e0_0" slope="0.00"/>
    </timestep>
    <timestep time="42.00">
        <vehicle id="background.0" x="52.76" y="-1.60" angle="90.00" type="human" speed="4.64" pos="52.76" lane="e0_0" slope="0.00"/>
        <vehicle id="ego" x="65.21" y="-1.60" angle="90.00" type="ego_glosa_type" speed="4.59" pos="65.21" lane="e0_0" slope="0.00"/>
    </timestep>
    <timestep time="42.50">
        <vehicle id="background.0" x="55.07" y="-1.60" angle="90.00" type="human" speed="4.63" pos="55.07" lane="e0_0" slope="0.00"/>
        <vehicle id="ego" x="67.51" y="-1.60" angle="90.00" type="ego_glosa_type" speed="4.59" pos="67.51" lane="e0_0" slope="0.00"/>
    </timestep>
    <timestep time="43.00">
        <vehicle id="background.0" x="57.37" y="-1.60" angle="90.00" type="human" speed="4.60" pos="57.37" lane="e0_0" slope="0.00"/>
        <vehicle id="ego" x="69.81" y="-1.60" angle="90.00" type="ego_glosa_type" speed="4.59" pos="69.81" lane="e0_0" slope="0.00"/>
    </timestep>
    <timestep time="43.50">
        <vehicle id="background.0" x="59.67" y="-1.60" angle="90.00" type="human" speed="4.59" pos="59.67" lane="e0_0" slope="0.00"/>
        <vehicle id="ego" x="72.10" y="-1.60" angle="90.00" type="ego_glosa_type" speed="4.59" pos="72.10" lane="e0_0" slope="0.00"/>
    </timestep>
    <timestep time="44.00">
        <vehicle id="background.0" x="61.83" y="-1.60" angle="90.00" type="human" speed="4.33" pos="61.83" lane="e0_0" slope="0.00"/>
        <vehicle id="ego" x="74.40" y="-1.60" angle="90.00" type="ego_glosa_type" speed="4.59" pos="74.40" lane="e0_0" slope="0.00"/>
    </timestep>
    <timestep time="44.50">
        <vehicle id="background.0" x="64.02" y="-1.60" angle="90.00" type="human" speed="4.37" pos="64.02" lane="e0_0" slope="0.00"/>
        <vehicle id="ego" x="76.70" y="-1.60" angle="90.00" type="ego_glosa_type" speed="4.59" pos="76.70" lane="e0_0" slope="0.00"/>
    </timestep>
    <timestep time="45.00">
        <vehicle id="background.0" x="66.26" y="-1.60" angle="90.00" type="human" speed="4.48" pos="66.26" lane="e0_0" slope="0.00"/>
        <vehicle id="ego" x="78.99" y="-1.60" angle="90.00" type="ego_glosa_type" speed="4.59" pos="78.99" lane="e0_0" slope="0.00"/>
    </timestep>
    <timestep time="45.50">
        <vehicle id="background.0" x="68.53" y="-1.60" angle="90.00" type="human" speed="4.55" pos="68.53" lane="e0_0" slope="0.00"/>
        <vehicle id="ego" x="81.13" y="-1.60" angle="90.00" type="ego_glosa_type" speed="4.27" pos="81.13" lane="e0_0" slope="0.00"/>
    </timestep>
    <timestep time="46.00">
        <vehicle id="background.0" x="70.87" y="-1.60" angle="90.00" type="human" speed="4.67" pos="70.87" lane="e0_0" slope="0.00"/>
        <vehicle id="ego" x="83.26" y="-1.60" angle="90.00" type="ego_glosa_type" speed="4.27" pos="83.26" lane="e0_0" slope="0.00"/>
    </timestep>
    <timestep time="46.50">
        <vehicle id="background.0" x="73.09" y="-1.60" angle="90.00" type="human" speed="4.43" pos="73.09" lane="e0_0" slope="0.00"/>
        <vehicle id="ego" x="85.40" y="-1.60" angle="90.00" type="ego_glosa_type" speed="4.27" pos="85.40" lane="e0_0" slope="0.00"/>
    </timestep>
    <timestep time="47.00">
        <vehicle id="background.0" x="75.17" y="-1.60" angle="90.00" type="human" speed="4.16" pos="75.17" lane="e0_0" slope="0.00"/>
        <vehicle id="ego" x="87.53" y="-1.60" angle="90.00" type="ego_glosa_type" speed="4.27" pos="87.53" lane="e0_0" slope="0.00"/>
    </timestep>
    <timestep time="47.50">
        <vehicle id="background.0" x="77.37" y="-1.60" angle="90.00" type="human" speed="4.42" pos="77.37" lane="e0_0" slope="0.00"/>
        <vehicle id="ego" x="89.67" y="-1.60" angle="90.00" type="ego_glosa_type" speed="4.27" pos="89.67" lane="e0_0" slope="0.00"/>
    </timestep>
    <timestep time="48.00">
        <vehicle id="background.0" x="79.61" y="-1.60" angle="90.00" type="human" speed="4.47" pos="79.61" lane="e0_0" slope="0.00"/>
        <vehicle id="ego" x="91.80" y="-1.60" angle="90.00" type="ego_glosa_type" speed="4.27" pos="91.80" lane="e0_0" slope="0.00"/>
    </timestep>
    <timestep time="48.50">
        <vehicle id="background.0" x="81.76" y="-1.60" angle="90.00" type="human" speed="4.29" pos="81.76" lane="e0_0" slope="0.00"/>
        <vehicle id="ego" x="93.94" y="-1.60" angle="90.00" type="ego_glosa_type" speed="4.27" pos="93.94" lane="e0_0" slope="0.00"/>
    </timestep>
    <timestep time="49.00">
        <vehicle id="background.0" x="83.81" y="-1.60" angle="90.00" type="human" speed="4.11" pos="83.81" lane="e0_0" slope="0.00"/>
        <vehicle id="ego" x="96.07" y="-1.60" angle="90.00" type="ego_glosa_type" speed="4.27" pos="96.07" lane="e0_0" slope="0.00"/>
    </timestep>
    <timestep time="49.50">
        <vehicle id="background.0" x="85.93" y="-1.60" angle="90.00" type="human" speed="4.24" pos="85.93" lane="e0_0" slope="0.00"/>
        <vehicle id="ego" x="98.21" y="-1.60" angle="90.00" type="ego_glosa_type" speed="4.27" pos="98.21" lane="e0_0" slope="0.00"/>
    </timestep>
    <timestep time="50.00">
        <vehicle id="background.0" x="88.07" y="-1.60" angle="90.00" type="human" speed="4.28" pos="88.07" lane="e0_0" slope="0.00"/>
        <vehicle id="ego" x="100.34" y="-1.60" angle="90.00" type="ego_glosa_type" speed="4.27" pos="100.34" lane="e0_0" slope="0.00"/>
    </timestep>
    <timestep time="50.50">
        <vehicle id="background.0" x="90.25" y="-1.60" angle="90.00" type="human" speed="4.35" pos="90.25" lane="e0_0" slope="0.00"/>
        <vehicle id="ego" x="102.47" y="-1.60" angle="90.00" type="ego_glosa_type" speed="4.27" pos="102.47" lane="e0_0" slope="0.00"/>
    </timestep>
    <timestep time="51.00">
        <vehicle id="background.0" x="92.48" y="-1.60" angle="90.00" type="human" speed="4.47" pos="92.48" lane="e0_0" slope="0.00"/>
        <vehicle id="ego" x="104.61" y="-1.60" angle="90.00" type="ego_glosa_type" speed="4.27" pos="104.61" lane="e0_0" slope="0.00"/>
    </timestep>
    <timestep time="51.50">
        <vehicle id="background.0" x="94.55" y="-1.60" angle="90.00" type="human" speed="4.13" pos="94.55" lane="e0_0" slope="0.00"/>
        <vehicle id="ego" x="106.74" y="-1.60" angle="90.00" type="ego_glosa_type" speed="4.27" pos="106.74" lane="e0_0" slope="0.00"/>
    </timestep>
    <timestep time="52.00">
        <vehicle id="background.0" x="96.64" y="-1.60" angle="90.00" type="human" speed="4.19" pos="96.64" lane="e0_0" slope="0.00"/>
        <vehicle id="ego" x="108.88" y="-1.60" angle="90.00" type="ego_glosa_type" speed="4.27" pos="108.88" lane="e0_0" slope="0.00"/>
    </timestep>
    <timestep time="52.50">
        <vehicle id="background.0" x="98.74" y="-1.60" angle="90.00" type="human" speed="4.20" pos="98.74" lane="e0_0" slope="0.00"/>
        <vehicle id="ego" x="111.01" y="-1.60" angle="90.00" type="ego_glosa_type" speed="4.27" pos="111.01" lane="e0_0" slope="0.00"/>
    </timestep>
    <timestep time="53.00">
        <vehicle id="background.0" x="100.81" y="-1.60" angle="90.00" type="human" speed="4.14" pos="100.81" lane="e0_0" slope="0.00"/>
        <vehicle id="ego" x="113.15" y="-1.60" angle="90.00" type="ego_glosa_type" speed="4.27" pos="113.15" lane="e0_0" slope="0.00"/>
    </timestep>
    <timestep time="53.50">
        <vehicle id="background.0" x="102.97" y="-1.60" angle="90.00" type="human" speed="4.33" pos="102.97" lane="e0_0" slope="0.00"/>
        <vehicle id="ego" x="115.28" y="-1.60" angle="90.00" type="ego_glosa_type" speed="4.27" pos="115.28" lane="e0_0" slope="0.00"/>
    </timestep>
    <timestep time="54.00">
        <vehicle id="background.0" x="105.16" y="-1.60" angle="90.00" type="human" speed="4.37" pos="105.16" lane="e0_0" slope="0.00"/>
        <vehicle id="ego" x="117.42" y="-1.60" angle="90.00" type="ego_glosa_type" speed="4.27" pos="117.42" lane="e0_0" slope="0.00"/>
    </timestep>
    <timestep time="54.50">
        <vehicle id="background.0" x="107.27" y="-1.60" angle="90.00" type="human" speed="4.23" pos="107.27" lane="e0_0" slope="0.00"/>
        <vehicle id="ego" x="119.55" y="-1.60" angle="90.00" type="ego_glosa_type" speed="4.27" pos="119.55" lane="e0_0" slope="0.00"/>
    </timestep>
    <timestep time="55.00">
        <vehicle id="background.0" x="109.32" y="-1.60" angle="90.00" type="human" speed="4.10" pos="109.32" lane="e0_0" slope="0.00"/>
        <vehicle id="background.1" x="5.10" y="-1.60" angle="90.00" type="human" speed="13.72" pos="5.10" lane="e0_0" slope="0.00"/>
        <vehicle id="ego" x="121.69" y="-1.60" angle="90.00" type="ego_glosa_type" speed="4.27" pos="121.69" lane="e0_0" slope="0.00"/>
    </timestep>
    <timestep time="55.50">
        <vehicle id="background.0" x="111.52" y="-1.60" angle="90.00" type="human" speed="4.41" pos="111.52" lane="e0_0" slope="0.00"/>
        <vehicle id="background.1" x="11.89" y="-1.60" angle="90.00" type="human" speed="13.58" pos="11.89" lane="e0_0" slope="0.00"/>
        <vehicle id="ego" x="123.82" y="-1.60" angle="90.00" type="ego_glosa_type" speed="4.27" pos="123.82" lane="e0_0" slope="0.00"/>
    </timestep>
    <timestep time="56.00">
        <vehicle id="background.0" x="113.64" y="-1.60" angle="90.00" type="human" speed="4.24" pos="113.64" lane="e0_0" slope="0.00"/>
        <vehicle id="background.1" x="18.52" y="-1.60" angle="90.00" type="human" speed="13.25" pos="18.52" lane="e0_0" slope="0.00"/>
        <vehicle id="ego" x="125.96" y="-1.60" angle="90.00" type="ego_glosa_type" speed="4.27" pos="125.96" lane="e0_0" slope="0.00"/>
    </timestep>
    <timestep time="56.50">
        <vehicle id="background.0" x="115.91" y="-1.60" angle="90.00" type="human" speed="4.52" pos="115.91" lane="e0_0" slope="0.00"/>
        <vehicle id="background.1" x="25.29" y="-1.60" angle="90.00" type="human" speed="13.55" pos="25.29" lane="e0_0" slope="0.00"/>
        <vehicle id="ego" x="128.09" y="-1.60" angle="90.00" type="ego_glosa_type" speed="4.27" pos="128.09" lane="e0_0" slope="0.00"/>
    </timestep>
    <timestep time="57.00">
        <vehicle id="background.0" x="118.00" y="-1.60" angle="90.00" type="human" speed="4.18" pos="118.00" lane="e0_0" slope="0.00"/>
        <vehicle id="background.1" x="32.05" y="-1.60" angle="90.00" type="human" speed="13.51" pos="32.05" lane="e0_0" slope="0.00"/>
        <vehicle id="ego" x="130.23" y="-1.60" angle="90.00" type="ego_glosa_type" speed="4.27" pos="130.23" lane="e0_0" slope="0.00"/>
    </timestep>
    <timestep time="57.50">
        <vehicle id="background.0" x="120.07" y="-1.60" angle="90.00" type="human" speed="4.14" pos="120.07" lane="e0_0" slope="0.00"/>
        <vehicle id="background.1" x="38.90" y="-1.60" angle="90.00" type="human" speed="13.70" pos="38.90" lane="e0_0" slope="0.00"/>
        <vehicle id="ego" x="132.36" y="-1.60" angle="90.00" type="ego_glosa_type" speed="4.27" pos="132.36" lane="e0_0" slope="0.00"/>
    </timestep>
    <timestep time="58.00">
        <vehicle id="background.0" x="122.18" y="-1.60" angle="90.00" type="human" speed="4.22" pos="122.18" lane="e0_0" slope="0.00"/>
        <vehicle id="background.1" x="45.67" y="-1.60" angle="90.00" type="human" speed="13.53" pos="45.67" lane="e0_0" slope="0.00"/>
        <vehicle id="background.2" x="5.10" y="-1.60" angle="90.00" type="human" speed="13.88" pos="5.10" lane="e0_0" slope="0.00"/>
        <vehicle id="ego" x="134.49" y="-1.60" angle="90.00" type="ego_glosa_type" speed="4.27" pos="134.49" lane="e0_0" slope="0.00"/>
    </timestep>
    <timestep time="58.50">
        <vehicle id="background.0" x="124.32" y="-1.60" angle="90.00" type="human" speed="4.29" pos="124.32" lane="e0_0" slope="0.00"/>
        <vehicle id="background.1" x="52.32" y="-1.60" angle="90.00" type="human" speed="13.32" pos="52.32" lane="e0_0" slope="0.00"/>
        <vehicle id="background.2" x="11.87" y="-1.60" angle="90.00" type="human" speed="13.53" pos="11.87" lane="e0_0" slope="0.00"/>
        <vehicle id="ego" x="136.63" y="-1.60" angle="90.00" type="ego_glosa_type" speed="4.27" pos="136.63" lane="e0_0" slope="0.00"/>
    </timestep>
    <timestep time="59.00">
        <vehicle id="background.0" x="126.41" y="-1.60" angle="90.00" type="human" speed="4.17" pos="126.41" lane="e0_0" slope="0.00"/>
        <vehicle id="background.1" x="59.08" y="-1.60" angle="90.00" type="human" speed="13.50" pos="59.08" lane="e0_0" slope="0.00"/>
        <vehicle id="background.2" x="18.70" y="-1.60" angle="90.00" type="human" speed="13.66" pos="18.70" lane="e0_0" slope="0.00"/>
        <vehicle id="ego" x="138.76" y="-1.60" angle="90.00" type="ego_glosa_type" speed="4.27" pos="138.76" lane="e0_0" slope="0.00"/>
    </timestep>
    <timestep time="59.50">
        <vehicle id="background.0" x="128.48" y="-1.60" angle="90.00" type="human" speed="4.15" pos="128.48" lane="e0_0" slope="0.00"/>
        <vehicle id="background.1" x="65.80" y="-1.60" angle="90.00" type="human" speed="13.45" pos="65.80" lane="e0_0" slope="0.00"/>
        <vehicle id="background.2" x="25.44" y="-1.60" angle="90.00" type="human" speed="13.49" pos="25.44" lane="e0_0" slope="0.00"/>
        <vehicle id="ego" x="140.90" y="-1.60" angle="90.00" type="ego_glosa_type" speed="4.27" pos="140.90" lane="e0_0" slope="0.00"/>
    </timestep>
    <timestep time="60.00">
        <vehicle id="background.0" x="130.77" y="-1.60" angle="90.00" type="human" speed="4.57" pos="130.77" lane="e0_0" slope="0.00"/>
        <vehicle id="background.1" x="72.56" y="-1.60" angle="90.00" type="human" speed="13.53" pos="72.56" lane="e0_0" slope="0.00"/>
        <vehicle id="background.2" x="32.36" y="-1.60" angle="90.00" type="human" speed="13.83" pos="32.36" lane="e0_0" slope="0.00"/>
        <vehicle id="background.3" x="5.10" y="-1.60" angle="90.00" type="human" speed="13.89" pos="5.10" lane="e0_0" slope="0.00"/>
        <vehicle id="ego" x="143.03" y="-1.60" angle="90.00" type="ego_glosa_type" speed="4.27" pos="143.03" lane="e0_0" slope="0.00"/>
    </timestep>
    <timestep time="60.50">
        <vehicle id="background.0" x="132.97" y="-1.60" angle="90.00" type="human" speed="4.41" pos="132.97" lane="e0_0" slope="0.00"/>
        <vehicle id="background.1" x="79.20" y="-1.60" angle="90.00" type="human" speed="13.27" pos="79.20" lane="e0_0" slope="0.00"/>
        <vehicle id="background.2" x="39.18" y="-1.60" angle="90.00" type="human" speed="13.64" pos="39.18" lane="e0_0" slope="0.00"/>
        <vehicle id="background.3" x="12.00" y="-1.60" angle="90.00" type="human" speed="13.81" pos="12.00" lane="e0_0" slope="0.00"/>
        <vehicle id="ego" x="145.17" y="-1.60" angle="90.00" type="ego_glosa_type" speed="4.27" pos="145.17" lane="e0_0" slope="0.00"/>
    </timestep>
    <timestep time="61.00">
        <vehicle id="background.0" x="135.04" y="-1.60" angle="90.00" type="human" speed="4.14" pos="135.04" lane="e0_0" slope="0.00"/>
        <vehicle id="background.1" x="86.00" y="-1.60" angle="90.00" type="human" speed="13.59" pos="86.00" lane="e0_0" slope="0.00"/>
        <vehicle id="background.2" x="46.07" y="-1.60" angle="90.00" type="human" speed="13.79" pos="46.07" lane="e0_0" slope="0.00"/>
        <vehicle id="background.3" x="18.73" y="-1.60" angle="90.00" type="human" speed="13.45" pos="18.73" lane="e0_0" slope="0.00"/>
        <vehicle id="ego" x="147.30" y="-1.60" angle="90.00" type="ego_glosa_type" speed="4.27" pos="147.30" lane="e0_0" slope="0.00"/>
    </timestep>
    <timestep time="61.50">
        <vehicle id="background.0" x="137.13" y="-1.60" angle="90.00" type="human" speed="4.18" pos="137.13" lane="e0_0" slope="0.00"/>
        <vehicle id="background.1" x="92.73" y="-1.60" angle="90.00" type="human" speed="13.46" pos="92.73" lane="e0_0" slope="0.00"/>
        <vehicle id="background.2" x="52.96" y="-1.60" angle="90.00" type="human" speed="13.77" pos="52.96" lane="e0_0" slope="0.00"/>
        <vehicle id="background.3" x="25.49" y="-1.60" angle="90.00" type="human" speed="13.53" pos="25.49" lane="e0_0" slope="0.00"/>
        <vehicle id="ego" x="149.44" y="-1.60" angle="90.00" type="ego_glosa_type" speed="4.27" pos="149.44" lane="e0_0" slope="0.00"/>
    </timestep>
    <timestep time="62.00">
        <vehicle id="background.0" x="139.42" y="-1.60" angle="90.00" type="human" speed="4.58" pos="139.42" lane="e0_0" slope="0.00"/>
        <vehicle id="background.1" x="99.43" y="-1.60" angle="90.00" type="human" speed="13.40" pos="99.43" lane="e0_0" slope="0.00"/>
        <vehicle id="background.2" x="59.67" y="-1.60" angle="90.00" type="human" speed="13.43" pos="59.67" lane="e0_0" slope="0.00"/>
        <vehicle id="background.3" x="32.32" y="-1.60" angle="90.00" type="human" speed="13.66" pos="32.32" lane="e0_0" slope="0.00"/>
        <vehicle id="ego" x="151.57" y="-1.60" angle="90.00" type="ego_glosa_type" speed="4.27" pos="151.57" lane="e0_0" slope="0.00"/>
    </timestep>
    <timestep time="62.50">
        <vehicle id="background.0" x="141.44" y="-1.60" angle="90.00" type="human" speed="4.05" pos="141.44" lane="e0_0" slope="0.00"/>
        <vehicle id="background.1" x="106.05" y="-1.60" angle="90.00" type="human" speed="13.24" pos="106.05" lane="e0_0" slope="0.00"/>
        <vehicle id="background.2" x="66.54" y="-1.60" angle="90.00" type="human" speed="13.73" pos="66.54" lane="e0_0" slope="0.00"/>
        <vehicle id="background.3" x="39.21" y="-1.60" angle="90.00" type="human" speed="13.78" pos="39.21" lane="e0_0" slope="0.00"/>
        <vehicle id="ego" x="153.71" y="-1.60" angle="90.00" type="ego_glosa_type" speed="4.27" pos="153.71" lane="e0_0" slope="0.00"/>
    </timestep>
    <timestep time="63.00">
        <vehicle id="background.0" x="143.56" y="-1.60" angle="90.00" type="human" speed="4.24" pos="143.56" lane="e0_0" slope="0.00"/>
        <vehicle id="background.1" x="112.43" y="-1.60" angle="90.00" type="human" speed="12.76" pos="112.43" lane="e0_0" slope="0.00"/>
        <vehicle id="background.2" x="73.39" y="-1.60" angle="90.00" type="human" speed="13.70" pos="73.39" lane="e0_0" slope="0.00"/>
        <vehicle id="background.3" x="45.98" y="-1.60" angle="90.00" type="human" speed="13.54" pos="45.98" lane="e0_0" slope="0.00"/>
        <vehicle id="ego" x="155.84" y="-1.60" angle="90.00" type="ego_glosa_type" speed="4.27" pos="155.84" lane="e0_0" slope="0.00"/>
    </timestep>
    <timestep time="63.50">
        <vehicle id="background.0" x="145.76" y="-1.60" angle="90.00" type="human" speed="4.39" pos="145.76" lane="e0_0" slope="0.00"/>
        <vehicle id="background.1" x="118.26" y="-1.60" angle="90.00" type="human" speed="11.66" pos="118.26" lane="e0_0" slope="0.00"/>
        <vehicle id="background.2" x="80.15" y="-1.60" angle="90.00" type="human" speed="13.52" pos="80.15" lane="e0_0" slope="0.00"/>
        <vehicle id="background.3" x="52.74" y="-1.60" angle="90.00" type="human" speed="13.51" pos="52.74" lane="e0_0" slope="0.00"/>
        <vehicle id="ego" x="157.98" y="-1.60" angle="90.00" type="ego_glosa_type" speed="4.27" pos="157.98" lane="e0_0" slope="0.00"/>
    </timestep>
    <timestep time="64.00">
        <vehicle id="background.0" x="147.93" y="-1.60" angle="90.00" type="human" speed="4.36" pos="147.93" lane="e0_0" slope="0.00"/>
        <vehicle id="background.1" x="123.60" y="-1.60" angle="90.00" type="human" speed="10.68" pos="123.60" lane="e0_0" slope="0.00"/>