<?xml version="1.0" encoding="UTF-8"?>

<!-- generated on 2026-05-14 17:06:10 by Eclipse SUMO sumo Version 1.24.0
<sumoConfiguration xmlns:xsi="http://www.w3.org/2001/XMLSchema-instance" xsi:noNamespaceSchemaLocation="http://sumo.dlr.de/xsd/sumoConfiguration.xsd">

    <input>
        <net-file value="scenarios/simple_arterial/simple_arterial.net.xml"/>
        <route-files value="scenarios/simple_arterial/simple_arterial_glosa.rou.xml"/>
        <additional-files value="scenarios/simple_arterial/simple_arterial.tls.xml"/>
    </input>

    <output>
        <fcd-output value="runs/fcd_expert_glosa/episode_00043_seed_85.fcd.xml"/>
    </output>

    <time>
        <begin value="0"/>
        <end value="900"/>
        <step-length value="0.5"/>
    </time>

    <report>
        <no-warnings value="true"/>
    </report>

    <traci_server>
        <remote-port value="37703"/>
    </traci_server>

    <random_number>
        <seed value="85"/>
    </random_number>

</sumoConfiguration>
-->

<fcd-export xmlns:xsi="http://www.w3.org/2001/XMLSchema-instance" xsi:noNamespaceSchemaLocation="http://sumo.dlr.de/xsd/fcd_file.xsd">
    <timestep time="0.00"/>
    <timestep time="0.50"/>
    <timestep time="1.00"/>
    <timestep time="1.50"/>
    <timestep time="2.00"/>
    <timestep time="2.50"/>
    <timestep time="3.00"/>
    <timestep time="3.50"/>
    <timestep time="4.00">
        <vehicle id="ego" x="5.10" y="-1.60" angle="90.00" type="ego_glosa_type" speed="0.00" pos="5.10" lane="e0_0" slope="0.00"/>
    </timestep>
    <timestep time="4.50">
        <vehicle id="ego" x="5.60" y="-1.60" angle="90.00" type="ego_glosa_type" speed="1.00" pos="5.60" lane="e0_0" slope="0.00"/>
    </timestep>
    <timestep time="5.00">
        <vehicle id="ego" x="6.60" y="-1.60" angle="90.00" type="ego_glosa_type" speed="2.00" pos="6.60" lane="e0_0" slope="0.00"/>
    </timestep>
    <timestep time="5.50">
        <vehicle id="ego" x="8.10" y="-1.60" angle="90.00" type="ego_glosa_type" speed="3.00" pos="8.10" lane="e0_0" slope="0.00"/>
    </timestep>
    <timestep time="6.00">
        <vehicle id="ego" x="10.10" y="-1.60" angle="90.00" type="ego_glosa_type" speed="4.00" pos="10.10" lane="e0_0" slope="0.00"/>
    </timestep>
    <timestep time="6.50">
        <vehicle id="ego" x="12.60" y="-1.60" angle="90.00" type="ego_glosa_type" speed="5.00" pos="12.60" lane="e0_0" slope="0.00"/>
    </timestep>
    <timestep time="7.00">
        <vehicle id="ego" x="15.60" y="-1.60" angle="90.00" type="ego_glosa_type" speed="6.00" pos="15.60" lane="e0_0" slope="0.00"/>
    </timestep>
    <timestep time="7.50">
        <vehicle id="ego" x="19.10" y="-1.60" angle="90.00" type="ego_glosa_type" speed="7.00" pos="19.10" lane="e0_0" slope="0.00"/>
    </timestep>
    <timestep time="8.00">
        <vehicle id="ego" x="23.10" y="-1.60" angle="90.00" type="ego_glosa_type" speed="8.00" pos="23.10" lane="e0_0" slope="0.00"/>
    </timestep>
    <timestep time="8.50">
        <vehicle id="ego" x="27.60" y="-1.60" angle="90.00" type="ego_glosa_type" speed="9.00" pos="27.60" lane="e0_0" slope="0.00"/>
    </timestep>
    <timestep time="9.00">
        <vehicle id="ego" x="32.60" y="-1.60" angle="90.00" type="ego_glosa_type" speed="10.00" pos="32.60" lane="e0_0" slope="0.00"/>
    </timestep>
    <timestep time="9.50">
        <vehicle id="ego" x="38.10" y="-1.60" angle="90.00" type="ego_glosa_type" speed="11.00" pos="38.10" lane="e0_0" slope="0.00"/>
    </timestep>
    <timestep time="10.00">
        <vehicle id="ego" x="44.10" y="-1.60" angle="90.00" type="ego_glosa_type" speed="12.00" pos="44.10" lane="e0_0" slope="0.00"/>
    </timestep>
    <timestep time="10.50">
        <vehicle id="ego" x="50.60" y="-1.60" angle="90.00" type="ego_glosa_type" speed="13.00" pos="50.60" lane="e0_0" slope="0.00"/>
    </timestep>
    <timestep time="11.00">
        <vehicle id="ego" x="57.55" y="-1.60" angle="90.00" type="ego_glosa_type" speed="13.89" pos="57.55" lane="e0_0" slope="0.00"/>
    </timestep>
    <timestep time="11.50">
        <vehicle id="ego" x="64.49" y="-1.60" angle="90.00" type="ego_glosa_type" speed="13.89" pos="64.49" lane="e0_0" slope="0.00"/>
    </timestep>
    <timestep time="12.00">
        <vehicle id="ego" x="71.44" y="-1.60" angle="90.00" type="ego_glosa_type" speed="13.89" pos="71.44" lane="e0_0" slope="0.00"/>
    </timestep>
    <timestep time="12.50">
        <vehicle id="ego" x="78.38" y="-1.60" angle="90.00" type="ego_glosa_type" speed="13.89" pos="78.38" lane="e0_0" slope="0.00"/>
    </timestep>
    <timestep time="13.00">
        <vehicle id="ego" x="85.32" y="-1.60" angle="90.00" type="ego_glosa_type" speed="13.89" pos="85.32" lane="e0_0" slope="0.00"/>
    </timestep>
    <timestep time="13.50">
        <vehicle id="ego" x="92.27" y="-1.60" angle="90.00" type="ego_glosa_type" speed="13.89" pos="92.27" lane="e0_0" slope="0.00"/>
    </timestep>
    <timestep time="14.00">
        <vehicle id="ego" x="99.21" y="-1.60" angle="90.00" type="ego_glosa_type" speed="13.89" pos="99.21" lane="e0_0" slope="0.00"/>
    </timestep>
    <timestep time="14.50">
        <vehicle id="ego" x="106.16" y="-1.60" angle="90.00" type="ego_glosa_type" speed="13.89" pos="106.16" lane="e0_0" slope="0.00"/>
    </timestep>
    <timestep time="15.00">
        <vehicle id="ego" x="113.10" y="-1.60" angle="90.00" type="ego_glosa_type" speed="13.89" pos="113.10" lane="e0_0" slope="0.00"/>
    </timestep>
    <timestep time="15.50">
        <vehicle id="ego" x="120.05" y="-1.60" angle="90.00" type="ego_glosa_type" speed="13.89" pos="120.05" lane="e0_0" slope="0.00"/>
    </timestep>
    <timestep time="16.00">
        <vehicle id="ego" x="126.99" y="-1.60" angle="90.00" type="ego_glosa_type" speed="13.89" pos="126.99" lane="e0_0" slope="0.00"/>
    </timestep>
    <timestep time="16.50">
        <vehicle id="ego" x="133.94" y="-1.60" angle="90.00" type="ego_glosa_type" speed="13.89" pos="133.94" lane="e0_0" slope="0.00"/>
    </timestep>
    <timestep time="17.00">
        <vehicle id="ego" x="140.88" y="-1.60" angle="90.00" type="ego_glosa_type" speed="13.89" pos="140.88" lane="e0_0" slope="0.00"/>
    </timestep>
    <timestep time="17.50">
        <vehicle id="ego" x="147.83" y="-1.60" angle="90.00" type="ego_glosa_type" speed="13.89" pos="147.83" lane="e0_0" slope="0.00"/>
    </timestep>
    <timestep time="18.00">
        <vehicle id="ego" x="154.77" y="-1.60" angle="90.00" type="ego_glosa_type" speed="13.89" pos="154.77" lane="e0_0" slope="0.00"/>
    </timestep>
    <timestep time="18.50">
        <vehicle id="ego" x="161.72" y="-1.60" angle="90.00" type="ego_glosa_type" speed="13.89" pos="161.72" lane="e0_0" slope="0.00"/>
    </timestep>
    <timestep time="19.00">
        <vehicle id="background.0" x="5.10" y="-1.60" angle="90.00" type="human" speed="13.89" pos="5.10" lane="e0_0" slope="0.00"/>
        <vehicle id="ego" x="168.66" y="-1.60" angle="90.00" type="ego_glosa_type" speed="13.89" pos="168.66" lane="e0_0" slope="0.00"/>
    </timestep>
    <timestep time="19.50">
        <vehicle id="background.0" x="11.99" y="-1.60" angle="90.00" type="human" speed="13.77" pos="11.99" lane="e0_0" slope="0.00"/>
        <vehicle id="ego" x="175.61" y="-1.60" angle="90.00" type="ego_glosa_type" speed="13.89" pos="175.61" lane="e0_0" slope="0.00"/>
    </timestep>
    <timestep time="20.00">
        <vehicle id="background.0" x="18.92" y="-1.60" angle="90.00" type="human" speed="13.86" pos="18.92" lane="e0_0" slope="0.00"/>
        <vehicle id="background.1" x="5.10" y="-1.60" angle="90.00" type="human" speed="11.76" pos="5.10" lane="e0_0" slope="0.00"/>
        <vehicle id="ego" x="182.55" y="-1.60" angle="90.00" type="ego_glosa_type" speed="13.89" pos="182.55" lane="e0_0" slope="0.00"/>
    </timestep>
    <timestep time="20.50">
        <vehicle id="background.0" x="25.79" y="-1.60" angle="90.00" type="human" speed="13.76" pos="25.79" lane="e0_0" slope="0.00"/>
        <vehicle id="background.1" x="10.88" y="-1.60" angle="90.00" type="human" speed="11.56" pos="10.88" lane="e0_0" slope="0.00"/>
        <vehicle id="ego" x="189.50" y="-1.60" angle="90.00" type="ego_glosa_type" speed="13.89" pos="189.50" lane="e0_0" slope="0.00"/>
    </timestep>
    <timestep time="21.00">
        <vehicle id="background.0" x="32.52" y="-1.60" angle="90.00" type="human" speed="13.45" pos="32.52" lane="e0_0" slope="0.00"/>
        <vehicle id="background.1" x="16.69" y="-1.60" angle="90.00" type="human" speed="11.62" pos="16.69" lane="e0_0" slope="0.00"/>
        <vehicle id="ego" x="196.44" y="-1.60" angle="90.00" type="ego_glosa_type" speed="13.89" pos="196.44" lane="e0_0" slope="0.00"/>
    </timestep>
    <timestep time="21.50">
        <vehicle id="background.0" x="39.42" y="-1.60" angle="90.00" type="human" speed="13.80" pos="39.42" lane="e0_0" slope="0.00"/>
        <vehicle id="background.1" x="22.51" y="-1.60" angle="90.00" type="human" speed="11.64" pos="22.51" lane="e0_0" slope="0.00"/>
        <vehicle id="ego" x="203.39" y="-1.60" angle="90.00" type="ego_glosa_type" speed="13.89" pos="203.39" lane="e0_0" slope="0.00"/>
    </timestep>
    <timestep time="22.00">
        <vehicle id="background.0" x="46.15" y="-1.60" angle="90.00" type="human" speed="13.46" pos="46.15" lane="e0_0" slope="0.00"/>
        <vehicle id="background.1" x="28.58" y="-1.60" angle="90.00" type="human" speed="12.13" pos="28.58" lane="e0_0" slope="0.00"/>
        <vehicle id="ego" x="210.33" y="-1.60" angle="90.00" type="ego_glosa_type" speed="13.89" pos="210.33" lane="e0_0" slope="0.00"/>
    </timestep>
    <timestep time="22.50">
        <vehicle id="background.0" x="52.91" y="-1.60" angle="90.00" type="human" speed="13.53" pos="52.91" lane="e0_0" slope="0.00"/>
        <vehicle id="background.1" x="34.70" y="-1.60" angle="90.00" type="human" speed="12.23" pos="34.70" lane="e0_0" slope="0.00"/>
        <vehicle id="ego" x="217.28" y="-1.60" angle="90.00" type="ego_glosa_type" speed="13.89" pos="217.28" lane="e0_0" slope="0.00"/>
    </timestep>
    <timestep time="23.00">
        <vehicle id="background.0" x="59.71" y="-1.60" angle="90.00" type="human" speed="13.60" pos="59.71" lane="e0_0" slope="0.00"/>
        <vehicle id="background.1" x="40.87" y="-1.60" angle="90.00" type="human" speed="12.35" pos="40.87" lane="e0_0" slope="0.00"/>
        <vehicle id="ego" x="224.22" y="-1.60" angle="90.00" type="ego_glosa_type" speed="13.89" pos="224.22" lane="e0_0" slope="0.00"/>
    </timestep>
    <timestep time="23.50">
        <vehicle id="background.0" x="66.50" y="-1.60" angle="90.00" type="human" speed="13.57" pos="66.50" lane="e0_0" slope="0.00"/>
        <vehicle id="background.1" x="47.17" y="-1.60" angle="90.00" type="human" speed="12.60" pos="47.17" lane="e0_0" slope="0.00"/>
        <vehicle id="ego" x="231.17" y="-1.60" angle="90.00" type="ego_glosa_type" speed="13.89" pos="231.17" lane="e0_0" slope="0.00"/>
    </timestep>
    <timestep time="24.00">
        <vehicle id="background.0" x="73.29" y="-1.60" angle="90.00" type="human" speed="13.59" pos="73.29" lane="e0_0" slope="0.00"/>
        <vehicle id="background.1" x="53.46" y="-1.60" angle="90.00" type="human" speed="12.58" pos="53.46" lane="e0_0" slope="0.00"/>
        <vehicle id="ego" x="238.11" y="-1.60" angle="90.00" type="ego_glosa_type" speed="13.89" pos="238.11" lane="e0_0" slope="0.00"/>
    </timestep>
    <timestep time="24.50">
        <vehicle id="background.0" x="80.13" y="-1.60" angle="90.00" type="human" speed="13.67" pos="80.13" lane="e0_0" slope="0.00"/>
        <vehicle id="background.1" x="60.00" y="-1.60" angle="90.00" type="human" speed="13.07" pos="60.00" lane="e0_0" slope="0.00"/>
        <vehicle id="ego" x="245.06" y="-1.60" angle="90.00" type="ego_glosa_type" speed="13.89" pos="245.06" lane="e0_0" slope="0.00"/>
    </timestep>
    <timestep time="25.00">
        <vehicle id="background.0" x="86.90" y="-1.60" angle="90.00" type="human" speed="13.55" pos="86.90" lane="e0_0" slope="0.00"/>
        <vehicle id="background.1" x="66.62" y="-1.60" angle="90.00" type="human" speed="13.24" pos="66.62" lane="e0_0" slope="0.00"/>
        <vehicle id="ego" x="252.00" y="-1.60" angle="90.00" type="ego_glosa_type" speed="13.89" pos="252.00" lane="e0_0" slope="0.00"/>
    </timestep>
    <timestep time="25.50">
        <vehicle id="background.0" x="93.63" y="-1.60" angle="90.00" type="human" speed="13.46" pos="93.63" lane="e0_0" slope="0.00"/>
        <vehicle id="background.1" x="73.26" y="-1.60" angle="90.00" type="human" speed="13.27" pos="73.26" lane="e0_0" slope="0.00"/>
        <vehicle id="ego" x="258.95" y="-1.60" angle="90.00" type="ego_glosa_type" speed="13.89" pos="258.95" lane="e0_0" slope="0.00"/>
    </timestep>
    <timestep time="26.00">
        <vehicle id="background.0" x="100.47" y="-1.60" angle="90.00" type="human" speed="13.67" pos="100.47" lane="e0_0" slope="0.00"/>
        <vehicle id="background.1" x="79.90" y="-1.60" angle="90.00" type="human" speed="13.29" pos="79.90" lane="e0_0" slope="0.00"/>
        <vehicle id="ego" x="265.89" y="-1.60" angle="90.00" type="ego_glosa_type" speed="13.89" pos="265.89" lane="e0_0" slope="0.00"/>
    </timestep>
    <timestep time="26.50">
        <vehicle id="background.0" x="107.29" y="-1.60" angle="90.00" type="human" speed="13.63" pos="107.29" lane="e0_0" slope="0.00"/>
        <vehicle id="background.1" x="86.41" y="-1.60" angle="90.00" type="human" speed="13.02" pos="86.41" lane="e0_0" slope="0.00"/>
        <vehicle id="ego" x="272.84" y="-1.60" angle="90.00" type="ego_glosa_type" speed="13.89" pos="272.84" lane="e0_0" slope="0.00"/>
    </timestep>
    <timestep time="27.00">
        <vehicle id="background.0" x="114.01" y="-1.60" angle="90.00" type="human" speed="13.44" pos="114.01" lane="e0_0" slope="0.00"/>
        <vehicle id="background.1" x="93.08" y="-1.60" angle="90.00" type="human" speed="13.34" pos="93.08" lane="e0_0" slope="0.00"/>
        <vehicle id="ego" x="279.78" y="-1.60" angle="90.00" type="ego_glosa_type" speed="13.89" pos="279.78" lane="e0_0" slope="0.00"/>
    </timestep>
    <timestep time="27.50">
        <vehicle id="background.0" x="120.73" y="-1.60" angle="90.00" type="human" speed="13.44" pos="120.73" lane="e0_0" slope="0.00"/>
        <vehicle id="background.1" x="99.75" y="-1.60" angle="90.00" type="human" speed="13.33" pos="99.75" lane="e0_0" slope="0.00"/>
        <vehicle id="ego" x="286.73" y="-1.60" angle="90.00" type="ego_glosa_type" speed="13.89" pos="286.73" lane="e0_0" slope="0.00"/>
    </timestep>
    <timestep time="28.00">
        <vehicle id="background.0" x="127.53" y="-1.60" angle="90.00" type="human" speed="13.61" pos="127.53" lane="e0_0" slope="0.00"/>
        <vehicle id="background.1" x="106.23" y="-1.60" angle="90.00" type="human" speed="12.97" pos="106.23" lane="e0_0" slope="0.00"/>
        <vehicle id="ego" x="293.67" y="-1.60" angle="90.00" type="ego_glosa_type" speed="13.89" pos="293.67" lane="e0_0" slope="0.00"/>
    </timestep>
    <timestep time="28.50">
        <vehicle id="background.0" x="134.46" y="-1.60" angle="90.00" type="human" speed="13.86" pos="134.46" lane="e0_0" slope="0.00"/>
        <vehicle id="background.1" x="112.82" y="-1.60" angle="90.00" type="human" speed="13.18" pos="112.82" lane="e0_0" slope="0.00"/>
        <vehicle id="ego" x="300.52" y="-1.60" angle="90.00" type="ego_glosa_type" speed="13.89" pos="0.52" lane="e1_0" slope="0.00"/>
    </timestep>
    <timestep time="29.00">
        <vehicle id="background.0" x="141.36" y="-1.60" angle="90.00" type="human" speed="13.80" pos="141.36" lane="e0_0" slope="0.00"/>
        <vehicle id="background.1" x="119.64" y="-1.60" angle="90.00" type="human" speed="13.64" pos="119.64" lane="e0_0" slope="0.00"/>
        <vehicle id="ego" x="307.46" y="-1.60" angle="90.00" type="ego_glosa_type" speed="13.89" pos="7.46" lane="e1_0" slope="0.00"/>
    </timestep>
    <timestep time="29.50">
        <vehicle id="background.0" x="148.22" y="-1.60" angle="90.00" type="human" speed="13.73" pos="148.22" lane="e0_0" slope="0.00"/>
        <vehicle id="background.1" x="126.38" y="-1.60" angle="90.00" type="human" speed="13.47" pos="126.38" lane="e0_0" slope="0.00"/>
        <vehicle id="background.2" x="5.10" y="-1.60" angle="90.00" type="human" speed="13.77" pos="5.10" lane="e0_0" slope="0.00"/>
        <vehicle id="ego" x="314.41" y="-1.60" angle="90.00" type="ego_glosa_type" speed="13.89" pos="14.41" lane="e1_0" slope="0.00"/>
    </timestep>
    <timestep time="30.00">
        <vehicle id="background.0" x="155.16" y="-1.60" angle="90.00" type="human" speed="13.86" pos="155.16" lane="e0_0" slope="0.00"/>
        <vehicle id="background.1" x="133.25" y="-1.60" angle="90.00" type="human" speed="13.73" pos="133.25" lane="e0_0" slope="0.00"/>
        <vehicle id="background.2" x="11.93" y="-1.60" angle="90.00" type="human" speed="13.65" pos="11.93" lane="e0_0" slope="0.00"/>
        <vehicle id="ego" x="321.35" y="-1.60" angle="90.00" type="ego_glosa_type" speed="13.89" pos="21.35" lane="e1_0" slope="0.00"/>
    </timestep>
    <timestep time="30.50">
        <vehicle id="background.0" x="162.04" y="-1.60" angle="90.00" type="human" speed="13.77" pos="162.04" lane="e0_0" slope="0.00"/>
        <vehicle id="background.1" x="139.96" y="-1.60" angle="90.00" type="human" speed="13.43" pos="139.96" lane="e0_0" slope="0.00"/>
        <vehicle id="background.2" x="18.69" y="-1.60" angle="90.00" type="human" speed="13.53" pos="18.69" lane="e0_0" slope="0.00"/>
        <vehicle id="ego" x="328.30" y="-1.60" angle="90.00" type="ego_glosa_type" speed="13.89" pos="28.30" lane="e1_0" slope="0.00"/>
    </timestep>
    <timestep time="31.00">
        <vehicle id="background.0" x="168.91" y="-1.60" angle="90.00" type="human" speed="13.73" pos="168.91" lane="e0_0" slope="0.00"/>
        <vehicle id="background.1" x="146.71" y="-1.60" angle="90.00" type="human" speed="13.51" pos="146.71" lane="e0_0" slope="0.00"/>
        <vehicle id="background.2" x="25.41" y="-1.60" angle="90.00" type="human" speed="13.43" pos="25.41" lane="e0_0" slope="0.00"/>
        <vehicle id="ego" x="335.24" y="-1.60" angle="90.00" type="ego_glosa_type" speed="13.89" pos="35.24" lane="e1_0" slope="0.00"/>
    </timestep>
    <timestep time="31.50">
        <vehicle id="background.0" x="175.65" y="-1.60" angle="90.00" type="human" speed="13.50" pos="175.65" lane="e0_0" slope="0.00"/>
        <vehicle id="background.1" x="153.57" y="-1.60" angle="90.00" type="human" speed="13.72" pos="153.57" lane="e0_0" slope="0.00"/>
        <vehicle id="background.2" x="32.13" y="-1.60" angle="90.00" type="human" speed="13.45" pos="32.13" lane="e0_0" slope="0.00"/>
        <vehicle id="ego" x="342.19" y="-1.60" angle="90.00" type="ego_glosa_type" speed="13.89" pos="42.19" lane="e1_0" slope="0.00"/>
    </timestep>
    <timestep time="32.00">
        <vehicle id="background.0" x="182.36" y="-1.60" angle="90.00" type="human" speed="13.41" pos="182.36" lane="e0_0" slope="0.00"/>
        <vehicle id="background.1" x="160.38" y="-1.60" angle="90.00" type="human" speed="13.62" pos="160.38" lane="e0_0" slope="0.00"/>
        <vehicle id="background.2" x="38.90" y="-1.60" angle="90.00" type="human" speed="13.55" pos="38.90" lane="e0_0" slope="0.00"/>
        <vehicle id="ego" x="349.13" y="-1.60" angle="90.00" type="ego_glosa_type" speed="13.89" pos="49.13" lane="e1_0" slope="0.00"/>
    </timestep>
    <timestep time="32.50">
        <vehicle id="background.0" x="189.09" y="-1.60" angle="90.00" type="human" speed="13.47" pos="189.09" lane="e0_0" slope="0.00"/>
        <vehicle id="background.1" x="166.98" y="-1.60" angle="90.00" type="human" speed="13.19" pos="166.98" lane="e0_0" slope="0.00"/>
        <vehicle id="background.2" x="45.77" y="-1.60" angle="90.00" type="human" speed="13.74" pos="45.77" lane="e0_0" slope="0.00"/>
    </timestep>
</fcd-export>
