<?xml version="1.0" encoding="UTF-8"?>

<!-- generated on 2026-05-14 17:05:52 by Eclipse SUMO sumo Version 1.24.0
<sumoConfiguration xmlns:xsi="http://www.w3.org/2001/XMLSchema-instance" xsi:noNamespaceSchemaLocation="http://sumo.dlr.de/xsd/sumoConfiguration.xsd">

    <input>
        <net-file value="scenarios/simple_arterial/simple_arterial.net.xml"/>
        <route-files value="scenarios/simple_arterial/simple_arterial_glosa.rou.xml"/>
        <additional-files value="scenarios/simple_arterial/simple_arterial.tls.xml"/>
    </input>

    <output>
        <fcd-output value="runs/fcd_expert_glosa/episode_00027_seed_69.fcd.xml"/>
    </output>

    <time>
        <begin value="0"/>
        <end value="900"/>
        <step-length value="0.5"/>
    </time>

    <report>
        <no-warnings value="true"/>
    </report>

    <traci_server>
        <remote-port value="37703"/>
    </traci_server>

    <random_number>
        <seed value="69"/>
    </random_number>

</sumoConfiguration>
-->

<fcd-export xmlns:xsi="http://www.w3.org/2001/XMLSchema-instance" xsi:noNamespaceSchemaLocation="http://sumo.dlr.de/xsd/fcd_file.xsd">
    <timestep time="0.00"/>
    <timestep time="0.50"/>
    <timestep time="1.00"/>
    <timestep time="1.50"/>
    <timestep time="2.00"/>
    <timestep time="2.50"/>
    <timestep time="3.00"/>
    <timestep time="3.50"/>
    <timestep time="4.00"/>
    <timestep time="4.50"/>
    <timestep time="5.00"/>
    <timestep time="5.50"/>
    <timestep time="6.00"/>
    <timestep time="6.50"/>
    <timestep time="7.00"/>
    <timestep time="7.50"/>
    <timestep time="8.00"/>
    <timestep time="8.50"/>
    <timestep time="9.00"/>
    <timestep time="9.50"/>
    <timestep time="10.00"/>
    <timestep time="10.50">
        <vehicle id="background.0" x="5.10" y="-1.60" angle="90.00" type="human" speed="11.66" pos="5.10" lane="e0_0" slope="0.00"/>
    </timestep>
    <timestep time="11.00">
        <vehicle id="background.0" x="10.70" y="-1.60" angle="90.00" type="human" speed="11.20" pos="10.70" lane="e0_0" slope="0.00"/>
    </timestep>
    <timestep time="11.50">
        <vehicle id="background.0" x="16.37" y="-1.60" angle="90.00" type="human" speed="11.33" pos="16.37" lane="e0_0" slope="0.00"/>
    </timestep>
    <timestep time="12.00">
        <vehicle id="background.0" x="21.98" y="-1.60" angle="90.00" type="human" speed="11.23" pos="21.98" lane="e0_0" slope="0.00"/>
    </timestep>
    <timestep time="12.50">
        <vehicle id="background.0" x="27.79" y="-1.60" angle="90.00" type="human" speed="11.62" pos="27.79" lane="e0_0" slope="0.00"/>
    </timestep>
    <timestep time="13.00">
        <vehicle id="background.0" x="33.47" y="-1.60" angle="90.00" type="human" speed="11.37" pos="33.47" lane="e0_0" slope="0.00"/>
    </timestep>
    <timestep time="13.50">
        <vehicle id="background.0" x="39.27" y="-1.60" angle="90.00" type="human" speed="11.60" pos="39.27" lane="e0_0" slope="0.00"/>
    </timestep>
    <timestep time="14.00">
        <vehicle id="background.0" x="44.88" y="-1.60" angle="90.00" type="human" speed="11.21" pos="44.88" lane="e0_0" slope="0.00"/>
    </timestep>
    <timestep time="14.50">
        <vehicle id="background.0" x="50.67" y="-1.60" angle="90.00" type="human" speed="11.58" pos="50.67" lane="e0_0" slope="0.00"/>
    </timestep>
    <timestep time="15.00">
        <vehicle id="background.0" x="56.42" y="-1.60" angle="90.00" type="human" speed="11.50" pos="56.42" lane="e0_0" slope="0.00"/>
    </timestep>
    <timestep time="15.50">
        <vehicle id="background.0" x="62.03" y="-1.60" angle="90.00" type="human" speed="11.23" pos="62.03" lane="e0_0" slope="0.00"/>
    </timestep>
    <timestep time="16.00">
        <vehicle id="background.0" x="67.83" y="-1.60" angle="90.00" type="human" speed="11.59" pos="67.83" lane="e0_0" slope="0.00"/>
    </timestep>
    <timestep time="16.50">
        <vehicle id="background.0" x="73.65" y="-1.60" angle="90.00" type="human" speed="11.65" pos="73.65" lane="e0_0" slope="0.00"/>
    </timestep>
    <timestep time="17.00">
        <vehicle id="background.0" x="79.27" y="-1.60" angle="90.00" type="human" speed="11.23" pos="79.27" lane="e0_0" slope="0.00"/>
    </timestep>
    <timestep time="17.50">
        <vehicle id="background.0" x="85.01" y="-1.60" angle="90.00" type="human" speed="11.49" pos="85.01" lane="e0_0" slope="0.00"/>
    </timestep>
    <timestep time="18.00">
        <vehicle id="background.0" x="90.74" y="-1.60" angle="90.00" type="human" speed="11.45" pos="90.74" lane="e0_0" slope="0.00"/>
    </timestep>
    <timestep time="18.50">
        <vehicle id="background.0" x="96.47" y="-1.60" angle="90.00" type="human" speed="11.47" pos="96.47" lane="e0_0" slope="0.00"/>
    </timestep>
    <timestep time="19.00">
        <vehicle id="background.0" x="102.18" y="-1.60" angle="90.00" type="human" speed="11.42" pos="102.18" lane="e0_0" slope="0.00"/>
    </timestep>
    <timestep time="19.50">
        <vehicle id="background.0" x="107.98" y="-1.60" angle="90.00" type="human" speed="11.60" pos="107.98" lane="e0_0" slope="0.00"/>
    </timestep>
    <timestep time="20.00">
        <vehicle id="background.0" x="113.69" y="-1.60" angle="90.00" type="human" speed="11.44" pos="113.69" lane="e0_0" slope="0.00"/>
    </timestep>
    <timestep time="20.50">
        <vehicle id="background.0" x="119.47" y="-1.60" angle="90.00" type="human" speed="11.55" pos="119.47" lane="e0_0" slope="0.00"/>
    </timestep>
    <timestep time="21.00">
        <vehicle id="background.0" x="125.21" y="-1.60" angle="90.00" type="human" speed="11.48" pos="125.21" lane="e0_0" slope="0.00"/>
    </timestep>
    <timestep time="21.50">
        <vehicle id="background.0" x="130.95" y="-1.60" angle="90.00" type="human" speed="11.48" pos="130.95" lane="e0_0" slope="0.00"/>
    </timestep>
    <timestep time="22.00">
        <vehicle id="background.0" x="136.72" y="-1.60" angle="90.00" type="human" speed="11.53" pos="136.72" lane="e0_0" slope="0.00"/>
    </timestep>
    <timestep time="22.50">
        <vehicle id="background.0" x="142.51" y="-1.60" angle="90.00" type="human" speed="11.60" pos="142.51" lane="e0_0" slope="0.00"/>
    </timestep>
    <timestep time="23.00">
        <vehicle id="background.0" x="148.20" y="-1.60" angle="90.00" type="human" speed="11.37" pos="148.20" lane="e0_0" slope="0.00"/>
    </timestep>
    <timestep time="23.50">
        <vehicle id="background.0" x="153.90" y="-1.60" angle="90.00" type="human" speed="11.40" pos="153.90" lane="e0_0" slope="0.00"/>
    </timestep>
    <timestep time="24.00">
        <vehicle id="background.0" x="159.65" y="-1.60" angle="90.00" type="human" speed="11.51" pos="159.65" lane="e0_0" slope="0.00"/>
    </timestep>
    <timestep time="24.50">
        <vehicle id="background.0" x="165.44" y="-1.60" angle="90.00" type="human" speed="11.58" pos="165.44" lane="e0_0" slope="0.00"/>
    </timestep>
    <timestep time="25.00">
        <vehicle id="background.0" x="171.26" y="-1.60" angle="90.00" type="human" speed="11.64" pos="171.26" lane="e0_0" slope="0.00"/>
    </timestep>
    <timestep time="25.50">
        <vehicle id="background.0" x="177.00" y="-1.60" angle="90.00" type="human" speed="11.48" pos="177.00" lane="e0_0" slope="0.00"/>
        <vehicle id="background.1" x="5.10" y="-1.60" angle="90.00" type="human" speed="13.89" pos="5.10" lane="e0_0" slope="0.00"/>
    </timestep>
    <timestep time="26.00">
        <vehicle id="background.0" x="182.65" y="-1.60" angle="90.00" type="human" speed="11.31" pos="182.65" lane="e0_0" slope="0.00"/>
        <vehicle id="background.1" x="11.88" y="-1.60" angle="90.00" type="human" speed="13.56" pos="11.88" lane="e0_0" slope="0.00"/>
    </timestep>
    <timestep time="26.50">
        <vehicle id="background.0" x="188.44" y="-1.60" angle="90.00" type="human" speed="11.57" pos="188.44" lane="e0_0" slope="0.00"/>
        <vehicle id="background.1" x="18.70" y="-1.60" angle="90.00" type="human" speed="13.63" pos="18.70" lane="e0_0" slope="0.00"/>
    </timestep>
    <timestep time="27.00">
        <vehicle id="background.0" x="194.22" y="-1.60" angle="90.00" type="human" speed="11.57" pos="194.22" lane="e0_0" slope="0.00"/>
        <vehicle id="background.1" x="25.47" y="-1.60" angle="90.00" type="human" speed="13.55" pos="25.47" lane="e0_0" slope="0.00"/>
    </timestep>
    <timestep time="27.50">
        <vehicle id="background.0" x="199.87" y="-1.60" angle="90.00" type="human" speed="11.29" pos="199.87" lane="e0_0" slope="0.00"/>
        <vehicle id="background.1" x="32.31" y="-1.60" angle="90.00" type="human" speed="13.68" pos="32.31" lane="e0_0" slope="0.00"/>
        <vehicle id="background.2" x="5.10" y="-1.60" angle="90.00" type="human" speed="13.27" pos="5.10" lane="e0_0" slope="0.00"/>
    </timestep>
    <timestep time="28.00">
        <vehicle id="background.0" x="205.67" y="-1.60" angle="90.00" type="human" speed="11.60" pos="205.67" lane="e0_0" slope="0.00"/>
        <vehicle id="background.1" x="39.09" y="-1.60" angle="90.00" type="human" speed="13.56" pos="39.09" lane="e0_0" slope="0.00"/>
        <vehicle id="background.2" x="11.66" y="-1.60" angle="90.00" type="human" speed="13.12" pos="11.66" lane="e0_0" slope="0.00"/>
    </timestep>
    <timestep time="28.50">
        <vehicle id="background.0" x="211.44" y="-1.60" angle="90.00" type="human" speed="11.54" pos="211.44" lane="e0_0" slope="0.00"/>
        <vehicle id="background.1" x="45.80" y="-1.60" angle="90.00" type="human" speed="13.42" pos="45.80" lane="e0_0" slope="0.00"/>
        <vehicle id="background.2" x="18.27" y="-1.60" angle="90.00" type="human" speed="13.22" pos="18.27" lane="e0_0" slope="0.00"/>
    </timestep>
    <timestep time="29.00">
        <vehicle id="background.0" x="217.02" y="-1.60" angle="90.00" type="human" speed="11.17" pos="217.02" lane="e0_0" slope="0.00"/>
        <vehicle id="background.1" x="52.70" y="-1.60" angle="90.00" type="human" speed="13.80" pos="52.70" lane="e0_0" slope="0.00"/>
        <vehicle id="background.2" x="24.66" y="-1.60" angle="90.00" type="human" speed="12.78" pos="24.66" lane="e0_0" slope="0.00"/>
    </timestep>
    <timestep time="29.50">
        <vehicle id="background.0" x="222.61" y="-1.60" angle="90.00" type="human" speed="11.17" pos="222.61" lane="e0_0" slope="0.00"/>
        <vehicle id="background.1" x="59.62" y="-1.60" angle="90.00" type="human" speed="13.82" pos="59.62" lane="e0_0" slope="0.00"/>
        <vehicle id="background.2" x="31.29" y="-1.60" angle="90.00" type="human" speed="13.26" pos="31.29" lane="e0_0" slope="0.00"/>
    </timestep>
    <timestep time="30.00">
        <vehicle id="background.0" x="228.44" y="-1.60" angle="90.00" type="human" speed="11.66" pos="228.44" lane="e0_0" slope="0.00"/>
        <vehicle id="background.1" x="66.54" y="-1.60" angle="90.00" type="human" speed="13.84" pos="66.54" lane="e0_0" slope="0.00"/>
        <vehicle id="background.2" x="37.73" y="-1.60" angle="90.00" type="human" speed="12.88" pos="37.73" lane="e0_0" slope="0.00"/>
    </timestep>
    <timestep time="30.50">
        <vehicle id="background.0" x="234.16" y="-1.60" angle="90.00" type="human" speed="11.44" pos="234.16" lane="e0_0" slope="0.00"/>
        <vehicle id="background.1" x="73.31" y="-1.60" angle="90.00" type="human" speed="13.55" pos="73.31" lane="e0_0" slope="0.00"/>
        <vehicle id="background.2" x="44.15" y="-1.60" angle="90.00" type="human" speed="12.84" pos="44.15" lane="e0_0" slope="0.00"/>
    </timestep>
    <timestep time="31.00">
        <vehicle id="background.0" x="239.91" y="-1.60" angle="90.00" type="human" speed="11.49" pos="239.91" lane="e0_0" slope="0.00"/>
        <vehicle id="background.1" x="80.09" y="-1.60" angle="90.00" type="human" speed="13.56" pos="80.09" lane="e0_0" slope="0.00"/>
        <vehicle id="background.2" x="50.70" y="-1.60" angle="90.00" type="human" speed="13.10" pos="50.70" lane="e0_0" slope="0.00"/>
    </timestep>
    <timestep time="31.50">
        <vehicle id="background.0" x="245.59" y="-1.60" angle="90.00" type="human" speed="11.36" pos="245.59" lane="e0_0" slope="0.00"/>
        <vehicle id="background.1" x="86.92" y="-1.60" angle="90.00" type="human" speed="13.65" pos="86.92" lane="e0_0" slope="0.00"/>
        <vehicle id="background.2" x="57.33" y="-1.60" angle="90.00" type="human" speed="13.26" pos="57.33" lane="e0_0" slope="0.00"/>
    </timestep>
    <timestep time="32.00">
        <vehicle id="background.0" x="251.29" y="-1.60" angle="90.00" type="human" speed="11.40" pos="251.29" lane="e0_0" slope="0.00"/>
        <vehicle id="background.1" x="93.75" y="-1.60" angle="90.00" type="human" speed="13.66" pos="93.75" lane="e0_0" slope="0.00"/>
        <vehicle id="background.2" x="63.72" y="-1.60" angle="90.00" type="human" speed="12.78" pos="63.72" lane="e0_0" slope="0.00"/>
    </timestep>
    <timestep time="32.50">
        <vehicle id="background.0" x="257.06" y="-1.60" angle="90.00" type="human" speed="11.55" pos="257.06" lane="e0_0" slope="0.00"/>
        <vehicle id="background.1" x="100.45" y="-1.60" angle="90.00" type="human" speed="13.42" pos="100.45" lane="e0_0" slope="0.00"/>
        <vehicle id="background.2" x="70.17" y="-1.60" angle="90.00" type="human" speed="12.90" pos="70.17" lane="e0_0" slope="0.00"/>
    </timestep>
    <timestep time="33.00">
        <vehicle id="background.0" x="262.69" y="-1.60" angle="90.00" type="human" speed="11.26" pos="262.69" lane="e0_0" slope="0.00"/>
        <vehicle id="background.1" x="107.31" y="-1.60" angle="90.00" type="human" speed="13.72" pos="107.31" lane="e0_0" slope="0.00"/>
        <vehicle id="background.2" x="76.76" y="-1.60" angle="90.00" type="human" speed="13.18" pos="76.76" lane="e0_0" slope="0.00"/>
    </timestep>
    <timestep time="33.50">
        <vehicle id="background.0" x="268.43" y="-1.60" angle="90.00" type="human" speed="11.47" pos="268.43" lane="e0_0" slope="0.00"/>
        <vehicle id="background.1" x="114.22" y="-1.60" angle="90.00" type="human" speed="13.81" pos="114.22" lane="e0_0" slope="0.00"/>
        <vehicle id="background.2" x="83.34" y="-1.60" angle="90.00" type="human" speed="13.16" pos="83.34" lane="e0_0" slope="0.00"/>
    </timestep>
    <timestep time="34.00">
        <vehicle id="background.0" x="274.25" y="-1.60" angle="90.00" type="human" speed="11.65" pos="274.25" lane="e0_0" slope="0.00"/>
        <vehicle id="background.1" x="121.12" y="-1.60" angle="90.00" type="human" speed="13.81" pos="121.12" lane="e0_0" slope="0.00"/>
        <vehicle id="background.2" x="89.91" y="-1.60" angle="90.00" type="human" speed="13.14" pos="89.91" lane="e0_0" slope="0.00"/>
    </timestep>
    <timestep time="34.50">
        <vehicle id="background.0" x="279.99" y="-1.60" angle="90.00" type="human" speed="11.48" pos="279.99" lane="e0_0" slope="0.00"/>
        <vehicle id="background.1" x="127.98" y="-1.60" angle="90.00" type="human" speed="13.71" pos="127.98" lane="e0_0" slope="0.00"/>
        <vehicle id="background.2" x="96.47" y="-1.60" angle="90.00" type="human" speed="13.11" pos="96.47" lane="e0_0" slope="0.00"/>
    </timestep>
    <timestep time="35.00">
        <vehicle id="background.0" x="285.58" y="-1.60" angle="90.00" type="human" speed="11.18" pos="285.58" lane="e0_0" slope="0.00"/>
        <vehicle id="background.1" x="134.80" y="-1.60" angle="90.00" type="human" speed="13.64" pos="134.80" lane="e0_0" slope="0.00"/>
        <vehicle id="background.2" x="103.01" y="-1.60" angle="90.00" type="human" speed="13.09" pos="103.01" lane="e0_0" slope="0.00"/>
    </timestep>
    <timestep time="35.50">
        <vehicle id="background.0" x="291.18" y="-1.60" angle="90.00" type="human" speed="11.21" pos="291.18" lane="e0_0" slope="0.00"/>
        <vehicle id="background.1" x="141.62" y="-1.60" angle="90.00" type="human" speed="13.65" pos="141.62" lane="e0_0" slope="0.00"/>
        <vehicle id="background.2" x="109.50" y="-1.60" angle="90.00" type="human" speed="12.98" pos="109.50" lane="e0_0" slope="0.00"/>
    </timestep>
    <timestep time="36.00">
        <vehicle id="background.0" x="296.96" y="-1.60" angle="90.00" type="human" speed="11.56" pos="296.96" lane="e0_0" slope="0.00"/>
        <vehicle id="background.1" x="148.41" y="-1.60" angle="90.00" type="human" speed="13.58" pos="148.41" lane="e0_0" slope="0.00"/>
        <vehicle id="background.2" x="115.91" y="-1.60" angle="90.00" type="human" speed="12.82" pos="115.91" lane="e0_0" slope="0.00"/>
    </timestep>
    <timestep time="36.50">
        <vehicle id="background.0" x="302.66" y="-1.60" angle="90.00" type="human" speed="11.59" pos="2.66" lane="e1_0" slope="0.00"/>
        <vehicle id="background.1" x="155.30" y="-1.60" angle="90.00" type="human" speed="13.78" pos="155.30" lane="e0_0" slope="0.00"/>
        <vehicle id="background.2" x="122.49" y="-1.60" angle="90.00" type="human" speed="13.17" pos="122.49" lane="e0_0" slope="0.00"/>
    </timestep>
    <timestep time="37.00">
        <vehicle id="background.0" x="308.44" y="-1.60" angle="90.00" type="human" speed="11.57" pos="8.44" lane="e1_0" slope="0.00"/>
        <vehicle id="background.1" x="162.04" y="-1.60" angle="90.00" type="human" speed="13.47" pos="162.04" lane="e0_0" slope="0.00"/>
        <vehicle id="background.2" x="129.03" y="-1.60" angle="90.00" type="human" speed="13.06" pos="129.03" lane="e0_0" slope="0.00"/>
    </timestep>
    <timestep time="37.50">
        <vehicle id="background.0" x="314.08" y="-1.60" angle="90.00" type="human" speed="11.28" pos="14.08" lane="e1_0" slope="0.00"/>
        <vehicle id="background.1" x="168.97" y="-1.60" angle="90.00" type="human" speed="13.86" pos="168.97" lane="e0_0" slope="0.00"/>
        <vehicle id="background.2" x="135.65" y="-1.60" angle="90.00" type="human" speed="13.26" pos="135.65" lane="e0_0" slope="0.00"/>
    </timestep>
    <timestep time="38.00">
        <vehicle id="background.0" x="319.82" y="-1.60" angle="90.00" type="human" speed="11.47" pos="19.82" lane="e1_0" slope="0.00"/>
        <vehicle id="background.1" x="175.86" y="-1.60" angle="90.00" type="human" speed="13.77" pos="175.86" lane="e0_0" slope="0.00"/>
        <vehicle id="background.2" x="142.29" y="-1.60" angle="90.00" type="human" speed="13.27" pos="142.29" lane="e0_0" slope="0.00"/>
    </timestep>
    <timestep time="38.50">
        <vehicle id="background.0" x="325.62" y="-1.60" angle="90.00" type="human" speed="11.61" pos="25.62" lane="e1_0" slope="0.00"/>
        <vehicle id="background.1" x="182.60" y="-1.60" angle="90.00" type="human" speed="13.49" pos="182.60" lane="e0_0" slope="0.00"/>
        <vehicle id="background.2" x="148.73" y="-1.60" angle="90.00" type="human" speed="12.89" pos="148.73" lane="e0_0" slope="0.00"/>
    </timestep>
    <timestep time="39.00">
        <vehicle id="background.0" x="331.25" y="-1.60" angle="90.00" type="human" speed="11.25" pos="31.25" lane="e1_0" slope="0.00"/>
        <vehicle id="background.1" x="189.49" y="-1.60" angle="90.00" type="human" speed="13.78" pos="189.49" lane="e0_0" slope="0.00"/>
        <vehicle id="background.2" x="155.16" y="-1.60" angle="90.00" type="human" speed="12.85" pos="155.16" lane="e0_0" slope="0.00"/>
    </timestep>
    <timestep time="39.50">
        <vehicle id="background.0" x="336.90" y="-1.60" angle="90.00" type="human" speed="11.31" pos="36.90" lane="e1_0" slope="0.00"/>
        <vehicle id="background.1" x="196.36" y="-1.60" angle="90.00" type="human" speed="13.74" pos="196.36" lane="e0_0" slope="0.00"/>
        <vehicle id="background.2" x="161.55" y="-1.60" angle="90.00" type="human" speed="12.80" pos="161.55" lane="e0_0" slope="0.00"/>
    </timestep>
    <timestep time="40.00">
        <vehicle id="background.0" x="342.68" y="-1.60" angle="90.00" type="human" speed="11.56" pos="42.68" lane="e1_0" slope="0.00"/>
        <vehicle id="background.1" x="203.20" y="-1.60" angle="90.00" type="human" speed="13.68" pos="203.20" lane="e0_0" slope="0.00"/>
        <vehicle id="background.2" x="168.16" y="-1.60" angle="90.00" type="human" speed="13.20" pos="168.16" lane="e0_0" slope="0.00"/>
    </timestep>
    <timestep time="40.50">
        <vehicle id="background.0" x="348.47" y="-1.60" angle="90.00" type="human" speed="11.58" pos="48.47" lane="e1_0" slope="0.00"/>
        <vehicle id="background.1" x="210.02" y="-1.60" angle="90.00" type="human" speed="13.64" pos="210.02" lane="e0_0" slope="0.00"/>
        <vehicle id="background.2" x="174.78" y="-1.60" angle="90.00" type="human" speed="13.24" pos="174.78" lane="e0_0" slope="0.00"/>
        <vehicle id="background.3" x="5.10" y="-1.60" angle="90.00" type="human" speed="13.89" pos="5.10" lane="e0_0" slope="0.00"/>
    </timestep>
    <timestep time="41.00">
        <vehicle id="background.1" x="216.92" y="-1.60" angle="90.00" type="human" speed="13.80" pos="216.92" lane="e0_0" slope="0.00"/>
        <vehicle id="background.2" x="181.33" y="-1.60" angle="90.00" type="human" speed="13.09" pos="181.33" lane="e0_0" slope="0.00"/>
        <vehicle id="background.3" x="12.01" y="-1.60" angle="90.00" type="human" speed="13.82" pos="12.01" lane="e0_0" slope="0.00"/>
    </timestep>
    <timestep time="41.50">
        <vehicle id="background.1" x="223.87" y="-1.60" angle="90.00" type="human" speed="13.89" pos="223.87" lane="e0_0" slope="0.00"/>
        <vehicle id="background.2" x="187.93" y="-1.60" angle="90.00" type="human" speed="13.22" pos="187.93" lane="e0_0" slope="0.00"/>
        <vehicle id="background.3" x="18.80" y="-1.60" angle="90.00" type="human" speed="13.59" pos="18.80" lane="e0_0" slope="0.00"/>
    </timestep>
    <timestep time="42.00">
        <vehicle id="background.1" x="230.70" y="-1.60" angle="90.00" type="human" speed="13.67" pos="230.70" lane="e0_0" slope="0.00"/>
        <vehicle id="background.2" x="194.38" y="-1.60" angle="90.00" type="human" speed="12.89" pos="194.38" lane="e0_0" slope="0.00"/>
        <vehicle id="background.3" x="25.54" y="-1.60" angle="90.00" type="human" speed="13.48" pos="25.54" lane="e0_0" slope="0.00"/>
    </timestep>
    <timestep time="42.50">
        <vehicle id="background.1" x="237.45" y="-1.60" angle="90.00" type="human" speed="13.49" pos="237.45" lane="e0_0" slope="0.00"/>
        <vehicle id="background.2" x="200.78" y="-1.60" angle="90.00" type="human" speed="12.80" pos="200.78" lane="e0_0" slope="0.00"/>
        <vehicle id="background.3" x="32.41" y="-1.60" angle="90.00" type="human" speed="13.74" pos="32.41" lane="e0_0" slope="0.00"/>
    </timestep>
    <timestep time="43.00">
        <vehicle id="background.1" x="244.26" y="-1.60" angle="90.00" type="human" speed="13.62" pos="244.26" lane="e0_0" slope="0.00"/>
        <vehicle id="background.2" x="207.30" y="-1.60" angle="90.00" type="human" speed="13.05" pos="207.30" lane="e0_0" slope="0.00"/>
        <vehicle id="background.3" x="39.20" y="-1.60" angle="90.00" type="human" speed="13.58" pos="39.20" lane="e0_0" slope="0.00"/>
    </timestep>
    <timestep time="43.50">
        <vehicle id="background.1" x="251.01" y="-1.60" angle="90.00" type="human" speed="13.50" pos="251.01" lane="e0_0" slope="0.00"/>
        <vehicle id="background.2" x="213.85" y="-1.60" angle="90.00" type="human" speed="13.10" pos="213.85" lane="e0_0" slope="0.00"/>
        <vehicle id="background.3" x="45.99" y="-1.60" angle="90.00" type="human" speed="13.58" pos="45.99" lane="e0_0" slope="0.00"/>
    </timestep>
    <timestep time="44.00">
        <vehicle id="background.1" x="257.74" y="-1.60" angle="90.00" type="human" speed="13.46" pos="257.74" lane="e0_0" slope="0.00"/>
        <vehicle id="background.2" x="220.34" y="-1.60" angle="90.00" type="human" speed="12.97" pos="220.34" lane="e0_0" slope="0.00"/>
        <vehicle id="background.3" x="52.79" y="-1.60" angle="90.00" type="human" speed="13.60" pos="52.79" lane="e0_0" slope="0.00"/>
    </timestep>
    <timestep time="44.50">
        <vehicle id="background.1" x="264.53" y="-1.60" angle="90.00" type="human" speed="13.59" pos="264.53" lane="e0_0" slope="0.00"/>
        <vehicle id="background.2" x="226.73" y="-1.60" angle="90.00" type="human" speed="12.79" pos="226.73" lane="e0_0" slope="0.00"/>
        <vehicle id="background.3" x="59.60" y="-1.60" angle="90.00" type="human" speed="13.62" pos="59.60" lane="e0_0" slope="0.00"/>
    </timestep>
    <timestep time="45.00">
        <vehicle id="background.1" x="271.26" y="-1.60" angle="90.00" type="human" speed="13.46" pos="271.26" lane="e0_0" slope="0.00"/>
        <vehicle id="background.2" x="233.36" y="-1.60" angle="90.00" type="human" speed="13.25" pos="233.36" lane="e0_0" slope="0.00"/>
        <vehicle id="background.3" x="66.45" y="-1.60" angle="90.00" type="human" speed="13.70" pos="66.45" lane="e0_0" slope="0.00"/>
    </timestep>
    <timestep time="45.50">
        <vehicle id="background.1" x="278.01" y="-1.60" angle="90.00" type="human" speed="13.50" pos="278.01" lane="e0_0" slope="0.00"/>
        <vehicle id="background.2" x="239.93" y="-1.60" angle="90.00" type="human" speed="13.13" pos="239.93" lane="e0_0" slope="0.00"/>
        <vehicle id="background.3" x="73.26" y="-1.60" angle="90.00" type="human" speed="13.62" pos="73.26" lane="e0_0" slope="0.00"/>
    </timestep>
    <timestep time="46.00">
        <vehicle id="background.1" x="284.13" y="-1.60" angle="90.00" type="human" speed="12.24" pos="284.13" lane="e0_0" slope="0.00"/>
        <vehicle id="background.2" x="246.32" y="-1.60" angle="90.00" type="human" speed="12.79" pos="246.32" lane="e0_0" slope="0.00"/>
        <vehicle id="background.3" x="80.17" y="-1.60" angle="90.00" type="human" speed="13.82" pos="80.17" lane="e0_0" slope="0.00"/>
    </timestep>
    <timestep time="46.50">
        <vehicle id="background.1" x="289.34" y="-1.60" angle="90.00" type="human" speed="10.43" pos="289.34" lane="e0_0" slope="0.00"/>
        <vehicle id="background.2" x="252.72" y="-1.60" angle="90.00" type="human" speed="12.80" pos="252.72" lane="e0_0" slope="0.00"/>
        <vehicle id="background.3" x="87.12" y="-1.60" angle="90.00" type="human" speed="13.89" pos="87.12" lane="e0_0" slope="0.00"/>
    </timestep>
    <timestep time="47.00">
        <vehicle id="background.1" x="293.43" y="-1.60" angle="90.00" type="human" speed="8.18" pos="293.43" lane="e0_0" slope="0.00"/>
        <vehicle id="background.2" x="259.16" y="-1.60" angle="90.00" type="human" speed="12.89" pos="259.16" lane="e0_0" slope="0.00"/>
        <vehicle id="background.3" x="93.84" y="-1.60" angle="90.00" type="human" speed="13.45" pos="93.84" lane="e0_0" slope="0.00"/>
    </timestep>
    <timestep time="47.50">
        <vehicle id="background.1" x="296.40" y="-1.60" angle="90.00" type="human" speed="5.93" pos="296.40" lane="e0_0" slope="0.00"/>
        <vehicle id="background.2" x="265.63" y="-1.60" angle="90.00" type="human" speed="12.94" pos="265.63" lane="e0_0" slope="0.00"/>
        <vehicle id="background.3" x="100.62" y="-1.60" angle="90.00" type="human" speed="13.57" pos="100.62" lane="e0_0" slope="0.00"/>
    </timestep>
    <timestep time="48.00">
        <vehicle id="background.1" x="298.24" y="-1.60" angle="90.00" type="human" speed="3.68" pos="298.24" lane="e0_0" slope="0.00"/>
        <vehicle id="background.2" x="271.51" y="-1.60" angle="90.00" type="human" speed="11.75" pos="271.51" lane="e0_0" slope="0.00"/>
        <vehicle id="background.3" x="107.47" y="-1.60" angle="90.00" type="human" speed="13.70" pos="107.47" lane="e0_0" slope="0.00"/>
    </timestep>
    <timestep time="48.50">
        <vehicle id="background.1" x="298.95" y="-1.60" angle="90.00" type="human" speed="1.43" pos="298.95" lane="e0_0" slope="0.00"/>
        <vehicle id="background.2" x="276.48" y="-1.60" angle="90.00" type="human" speed="9.94" pos="276.48" lane="e0_0" slope="0.00"/>
        <vehicle id="background.3" x="114.19" y="-1.60" angle="90.00" type="human" speed="13.44" pos="114.19" lane="e0_0" slope="0.00"/>
    </timestep>
    <timestep time="49.00">
        <vehicle id="background.1" x="299.00" y="-1.60" angle="90.00" type="human" speed="0.10" pos="299.00" lane="e0_0" slope="0.00"/>
        <vehicle id="background.2" x="280.75" y="-1.60" angle="90.00" type="human" speed="8.54" pos="280.75" lane="e0_0" slope="0.00"/>
        <vehicle id="background.3" x="121.02" y="-1.60" angle="90.00" type="human" speed="13.66" pos="121.02" lane="e0_0" slope="0.00"/>
    </timestep>
    <timestep time="49.50">
        <vehicle id="background.1" x="299.00" y="-1.60" angle="90.00" type="human" speed="0.00" pos="299.00" lane="e0_0" slope="0.00"/>
        <vehicle id="background.2" x="284.21" y="-1.60" angle="90.00" type="human" speed="6.93" pos="284.21" lane="e0_0" slope="0.00"/>
        <vehicle id="background.3" x="127.87" y="-1.60" angle="90.00" type="human" speed="13.70" pos="127.87" lane="e0_0" slope="0.00"/>
    </timestep>
    <timestep time="50.00">
        <vehicle id="background.1" x="299.00" y="-1.60" angle="90.00" type="human" speed="0.00" pos="299.00" lane="e0_0" slope="0.00"/>
        <vehicle id="background.2" x="286.80" y="-1.60" angle="90.00" type="human" speed="5.17" pos="286.80" lane="e0_0" slope="0.00"/>
        <vehicle id="background.3" x="134.59" y="-1.60" angle="90.00" type="human" speed="13.43" pos="134.59" lane="e0_0" slope="0.00"/>
    </timestep>
    <timestep time="50.50">
        <vehicle id="background.1" x="299.00" y="-1.60" angle="90.00" type="human" speed="0.00" pos="299.00" lane="e0_0" slope="0.00"/>
        <vehicle id="background.2" x="288.69" y="-1.60" angle="90.00" type="human" speed="3.78" pos="288.69" lane="e0_0" slope="0.00"/>
        <vehicle id="background.3" x="141.44" y="-1.60" angle="90.00" type="human" speed="13.70" pos="141.44" lane="e0_0" slope="0.00"/>
    </timestep>
    <timestep time="51.00">
        <vehicle id="background.1" x="299.00" y="-1.60" angle="90.00" type="human" speed="0.00" pos="299.00" lane="e0_0" slope="0.00"/>