<?xml version="1.0" encoding="UTF-8"?>

<!-- generated on 2026-05-14 17:05:34 by Eclipse SUMO sumo Version 1.24.0
<sumoConfiguration xmlns:xsi="http://www.w3.org/2001/XMLSchema-instance" xsi:noNamespaceSchemaLocation="http://sumo.dlr.de/xsd/sumoConfiguration.xsd">

    <input>
        <net-file value="scenarios/simple_arterial/simple_arterial.net.xml"/>
        <route-files value="scenarios/simple_arterial/simple_arterial_glosa.rou.xml"/>
        <additional-files value="scenarios/simple_arterial/simple_arterial.tls.xml"/>
    </input>

    <output>
        <fcd-output value="runs/fcd_expert_glosa/episode_00012_seed_54.fcd.xml"/>
    </output>

    <time>
        <begin value="0"/>
        <end value="900"/>
        <step-length value="0.5"/>
    </time>

    <report>
        <no-warnings value="true"/>
    </report>

    <traci_server>
        <remote-port value="37703"/>
    </traci_server>

    <random_number>
        <seed value="54"/>
    </random_number>

</sumoConfiguration>
-->

<fcd-export xmlns:xsi="http://www.w3.org/2001/XMLSchema-instance" xsi:noNamespaceSchemaLocation="http://sumo.dlr.de/xsd/fcd_file.xsd">
    <timestep time="0.00"/>
    <timestep time="0.50"/>
    <timestep time="1.00"/>
    <timestep time="1.50">
        <vehicle id="background.0" x="5.10" y="-1.60" angle="90.00" type="human" speed="13.41" pos="5.10" lane="e0_0" slope="0.00"/>
    </timestep>
    <timestep time="2.00">
        <vehicle id="background.0" x="11.78" y="-1.60" angle="90.00" type="human" speed="13.37" pos="11.78" lane="e0_0" slope="0.00"/>
    </timestep>
    <timestep time="2.50">
        <vehicle id="background.0" x="18.32" y="-1.60" angle="90.00" type="human" speed="13.07" pos="18.32" lane="e0_0" slope="0.00"/>
    </timestep>
    <timestep time="3.00">
        <vehicle id="background.0" x="24.78" y="-1.60" angle="90.00" type="human" speed="12.93" pos="24.78" lane="e0_0" slope="0.00"/>
    </timestep>
    <timestep time="3.50">
        <vehicle id="background.0" x="31.25" y="-1.60" angle="90.00" type="human" speed="12.93" pos="31.25" lane="e0_0" slope="0.00"/>
    </timestep>
    <timestep time="4.00">
        <vehicle id="background.0" x="37.83" y="-1.60" angle="90.00" type="human" speed="13.17" pos="37.83" lane="e0_0" slope="0.00"/>
        <vehicle id="background.1" x="5.10" y="-1.60" angle="90.00" type="human" speed="13.89" pos="5.10" lane="e0_0" slope="0.00"/>
    </timestep>
    <timestep time="4.50">
        <vehicle id="background.0" x="44.48" y="-1.60" angle="90.00" type="human" speed="13.29" pos="44.48" lane="e0_0" slope="0.00"/>
        <vehicle id="background.1" x="11.98" y="-1.60" angle="90.00" type="human" speed="13.77" pos="11.98" lane="e0_0" slope="0.00"/>
    </timestep>
    <timestep time="5.00">
        <vehicle id="background.0" x="50.94" y="-1.60" angle="90.00" type="human" speed="12.92" pos="50.94" lane="e0_0" slope="0.00"/>
        <vehicle id="background.1" x="18.80" y="-1.60" angle="90.00" type="human" speed="13.62" pos="18.80" lane="e0_0" slope="0.00"/>
    </timestep>
    <timestep time="5.50">
        <vehicle id="background.0" x="57.47" y="-1.60" angle="90.00" type="human" speed="13.05" pos="57.47" lane="e0_0" slope="0.00"/>
        <vehicle id="background.1" x="25.67" y="-1.60" angle="90.00" type="human" speed="13.75" pos="25.67" lane="e0_0" slope="0.00"/>
    </timestep>
    <timestep time="6.00">
        <vehicle id="background.0" x="64.04" y="-1.60" angle="90.00" type="human" speed="13.15" pos="64.04" lane="e0_0" slope="0.00"/>
        <vehicle id="background.1" x="32.40" y="-1.60" angle="90.00" type="human" speed="13.46" pos="32.40" lane="e0_0" slope="0.00"/>
    </timestep>
    <timestep time="6.50">
        <vehicle id="background.0" x="70.67" y="-1.60" angle="90.00" type="human" speed="13.26" pos="70.67" lane="e0_0" slope="0.00"/>
        <vehicle id="background.1" x="39.33" y="-1.60" angle="90.00" type="human" speed="13.87" pos="39.33" lane="e0_0" slope="0.00"/>
    </timestep>
    <timestep time="7.00">
        <vehicle id="background.0" x="77.32" y="-1.60" angle="90.00" type="human" speed="13.31" pos="77.32" lane="e0_0" slope="0.00"/>
        <vehicle id="background.1" x="46.25" y="-1.60" angle="90.00" type="human" speed="13.84" pos="46.25" lane="e0_0" slope="0.00"/>
    </timestep>
    <timestep time="7.50">
        <vehicle id="background.0" x="83.86" y="-1.60" angle="90.00" type="human" speed="13.07" pos="83.86" lane="e0_0" slope="0.00"/>
        <vehicle id="background.1" x="53.01" y="-1.60" angle="90.00" type="human" speed="13.51" pos="53.01" lane="e0_0" slope="0.00"/>
    </timestep>
    <timestep time="8.00">
        <vehicle id="background.0" x="90.49" y="-1.60" angle="90.00" type="human" speed="13.26" pos="90.49" lane="e0_0" slope="0.00"/>
        <vehicle id="background.1" x="59.94" y="-1.60" angle="90.00" type="human" speed="13.86" pos="59.94" lane="e0_0" slope="0.00"/>
    </timestep>
    <timestep time="8.50">
        <vehicle id="background.0" x="97.08" y="-1.60" angle="90.00" type="human" speed="13.18" pos="97.08" lane="e0_0" slope="0.00"/>
        <vehicle id="background.1" x="66.69" y="-1.60" angle="90.00" type="human" speed="13.50" pos="66.69" lane="e0_0" slope="0.00"/>
    </timestep>
    <timestep time="9.00">
        <vehicle id="background.0" x="103.69" y="-1.60" angle="90.00" type="human" speed="13.22" pos="103.69" lane="e0_0" slope="0.00"/>
        <vehicle id="background.1" x="73.63" y="-1.60" angle="90.00" type="human" speed="13.89" pos="73.63" lane="e0_0" slope="0.00"/>
        <vehicle id="background.2" x="5.10" y="-1.60" angle="90.00" type="human" speed="13.89" pos="5.10" lane="e0_0" slope="0.00"/>
    </timestep>
    <timestep time="9.50">
        <vehicle id="background.0" x="110.37" y="-1.60" angle="90.00" type="human" speed="13.36" pos="110.37" lane="e0_0" slope="0.00"/>
        <vehicle id="background.1" x="80.42" y="-1.60" angle="90.00" type="human" speed="13.58" pos="80.42" lane="e0_0" slope="0.00"/>
        <vehicle id="background.2" x="12.03" y="-1.60" angle="90.00" type="human" speed="13.86" pos="12.03" lane="e0_0" slope="0.00"/>
    </timestep>
    <timestep time="10.00">
        <vehicle id="background.0" x="116.87" y="-1.60" angle="90.00" type="human" speed="13.01" pos="116.87" lane="e0_0" slope="0.00"/>
        <vehicle id="background.1" x="87.23" y="-1.60" angle="90.00" type="human" speed="13.62" pos="87.23" lane="e0_0" slope="0.00"/>
        <vehicle id="background.2" x="18.75" y="-1.60" angle="90.00" type="human" speed="13.44" pos="18.75" lane="e0_0" slope="0.00"/>
    </timestep>
    <timestep time="10.50">
        <vehicle id="background.0" x="123.54" y="-1.60" angle="90.00" type="human" speed="13.34" pos="123.54" lane="e0_0" slope="0.00"/>
        <vehicle id="background.1" x="93.93" y="-1.60" angle="90.00" type="human" speed="13.40" pos="93.93" lane="e0_0" slope="0.00"/>
        <vehicle id="background.2" x="25.65" y="-1.60" angle="90.00" type="human" speed="13.79" pos="25.65" lane="e0_0" slope="0.00"/>
    </timestep>
    <timestep time="11.00">
        <vehicle id="background.0" x="130.13" y="-1.60" angle="90.00" type="human" speed="13.17" pos="130.13" lane="e0_0" slope="0.00"/>
        <vehicle id="background.1" x="100.66" y="-1.60" angle="90.00" type="human" speed="13.45" pos="100.66" lane="e0_0" slope="0.00"/>
        <vehicle id="background.2" x="32.50" y="-1.60" angle="90.00" type="human" speed="13.71" pos="32.50" lane="e0_0" slope="0.00"/>
    </timestep>
    <timestep time="11.50">
        <vehicle id="background.0" x="136.65" y="-1.60" angle="90.00" type="human" speed="13.04" pos="136.65" lane="e0_0" slope="0.00"/>
        <vehicle id="background.1" x="107.38" y="-1.60" angle="90.00" type="human" speed="13.46" pos="107.38" lane="e0_0" slope="0.00"/>
        <vehicle id="background.2" x="39.21" y="-1.60" angle="90.00" type="human" speed="13.42" pos="39.21" lane="e0_0" slope="0.00"/>
    </timestep>
    <timestep time="12.00">
        <vehicle id="background.0" x="143.26" y="-1.60" angle="90.00" type="human" speed="13.22" pos="143.26" lane="e0_0" slope="0.00"/>
        <vehicle id="background.1" x="114.28" y="-1.60" angle="90.00" type="human" speed="13.79" pos="114.28" lane="e0_0" slope="0.00"/>
        <vehicle id="background.2" x="46.00" y="-1.60" angle="90.00" type="human" speed="13.57" pos="46.00" lane="e0_0" slope="0.00"/>
    </timestep>
    <timestep time="12.50">
        <vehicle id="background.0" x="149.82" y="-1.60" angle="90.00" type="human" speed="13.13" pos="149.82" lane="e0_0" slope="0.00"/>
        <vehicle id="background.1" x="121.22" y="-1.60" angle="90.00" type="human" speed="13.88" pos="121.22" lane="e0_0" slope="0.00"/>
        <vehicle id="background.2" x="52.89" y="-1.60" angle="90.00" type="human" speed="13.78" pos="52.89" lane="e0_0" slope="0.00"/>
    </timestep>
    <timestep time="13.00">
        <vehicle id="background.0" x="156.33" y="-1.60" angle="90.00" type="human" speed="13.01" pos="156.33" lane="e0_0" slope="0.00"/>
        <vehicle id="background.1" x="128.07" y="-1.60" angle="90.00" type="human" speed="13.69" pos="128.07" lane="e0_0" slope="0.00"/>
        <vehicle id="background.2" x="59.72" y="-1.60" angle="90.00" type="human" speed="13.68" pos="59.72" lane="e0_0" slope="0.00"/>
    </timestep>
    <timestep time="13.50">
        <vehicle id="background.0" x="162.96" y="-1.60" angle="90.00" type="human" speed="13.26" pos="162.96" lane="e0_0" slope="0.00"/>
        <vehicle id="background.1" x="134.87" y="-1.60" angle="90.00" type="human" speed="13.61" pos="134.87" lane="e0_0" slope="0.00"/>
        <vehicle id="background.2" x="66.61" y="-1.60" angle="90.00" type="human" speed="13.77" pos="66.61" lane="e0_0" slope="0.00"/>
    </timestep>
    <timestep time="14.00">
        <vehicle id="background.0" x="169.47" y="-1.60" angle="90.00" type="human" speed="13.03" pos="169.47" lane="e0_0" slope="0.00"/>
        <vehicle id="background.1" x="141.76" y="-1.60" angle="90.00" type="human" speed="13.78" pos="141.76" lane="e0_0" slope="0.00"/>
        <vehicle id="background.2" x="73.45" y="-1.60" angle="90.00" type="human" speed="13.69" pos="73.45" lane="e0_0" slope="0.00"/>
    </timestep>
    <timestep time="14.50">
        <vehicle id="background.0" x="176.05" y="-1.60" angle="90.00" type="human" speed="13.16" pos="176.05" lane="e0_0" slope="0.00"/>
        <vehicle id="background.1" x="148.48" y="-1.60" angle="90.00" type="human" speed="13.44" pos="148.48" lane="e0_0" slope="0.00"/>
        <vehicle id="background.2" x="80.17" y="-1.60" angle="90.00" type="human" speed="13.43" pos="80.17" lane="e0_0" slope="0.00"/>
    </timestep>
    <timestep time="15.00">
        <vehicle id="background.0" x="182.59" y="-1.60" angle="90.00" type="human" speed="13.09" pos="182.59" lane="e0_0" slope="0.00"/>
        <vehicle id="background.1" x="155.31" y="-1.60" angle="90.00" type="human" speed="13.66" pos="155.31" lane="e0_0" slope="0.00"/>
        <vehicle id="background.2" x="86.93" y="-1.60" angle="90.00" type="human" speed="13.53" pos="86.93" lane="e0_0" slope="0.00"/>
    </timestep>
    <timestep time="15.50">
        <vehicle id="background.0" x="189.06" y="-1.60" angle="90.00" type="human" speed="12.93" pos="189.06" lane="e0_0" slope="0.00"/>
        <vehicle id="background.1" x="162.06" y="-1.60" angle="90.00" type="human" speed="13.50" pos="162.06" lane="e0_0" slope="0.00"/>
        <vehicle id="background.2" x="93.72" y="-1.60" angle="90.00" type="human" speed="13.58" pos="93.72" lane="e0_0" slope="0.00"/>
    </timestep>
    <timestep time="16.00">
        <vehicle id="background.0" x="195.68" y="-1.60" angle="90.00" type="human" speed="13.24" pos="195.68" lane="e0_0" slope="0.00"/>
        <vehicle id="background.1" x="168.96" y="-1.60" angle="90.00" type="human" speed="13.80" pos="168.96" lane="e0_0" slope="0.00"/>
        <vehicle id="background.2" x="100.66" y="-1.60" angle="90.00" type="human" speed="13.88" pos="100.66" lane="e0_0" slope="0.00"/>
    </timestep>
    <timestep time="16.50">
        <vehicle id="background.0" x="202.18" y="-1.60" angle="90.00" type="human" speed="13.00" pos="202.18" lane="e0_0" slope="0.00"/>
        <vehicle id="background.1" x="175.82" y="-1.60" angle="90.00" type="human" speed="13.71" pos="175.82" lane="e0_0" slope="0.00"/>
        <vehicle id="background.2" x="107.47" y="-1.60" angle="90.00" type="human" speed="13.61" pos="107.47" lane="e0_0" slope="0.00"/>
    </timestep>
    <timestep time="17.00">
        <vehicle id="background.0" x="208.81" y="-1.60" angle="90.00" type="human" speed="13.26" pos="208.81" lane="e0_0" slope="0.00"/>
        <vehicle id="background.1" x="182.72" y="-1.60" angle="90.00" type="human" speed="13.81" pos="182.72" lane="e0_0" slope="0.00"/>
        <vehicle id="background.2" x="114.18" y="-1.60" angle="90.00" type="human" speed="13.43" pos="114.18" lane="e0_0" slope="0.00"/>
    </timestep>
    <timestep time="17.50">
        <vehicle id="background.0" x="215.40" y="-1.60" angle="90.00" type="human" speed="13.17" pos="215.40" lane="e0_0" slope="0.00"/>
        <vehicle id="background.1" x="189.61" y="-1.60" angle="90.00" type="human" speed="13.76" pos="189.61" lane="e0_0" slope="0.00"/>
        <vehicle id="background.2" x="121.07" y="-1.60" angle="90.00" type="human" speed="13.78" pos="121.07" lane="e0_0" slope="0.00"/>
        <vehicle id="background.3" x="5.10" y="-1.60" angle="90.00" type="human" speed="13.89" pos="5.10" lane="e0_0" slope="0.00"/>
    </timestep>
    <timestep time="18.00">
        <vehicle id="background.0" x="222.04" y="-1.60" angle="90.00" type="human" speed="13.29" pos="222.04" lane="e0_0" slope="0.00"/>
        <vehicle id="background.1" x="196.43" y="-1.60" angle="90.00" type="human" speed="13.64" pos="196.43" lane="e0_0" slope="0.00"/>
        <vehicle id="background.2" x="127.79" y="-1.60" angle="90.00" type="human" speed="13.44" pos="127.79" lane="e0_0" slope="0.00"/>
        <vehicle id="background.3" x="11.92" y="-1.60" angle="90.00" type="human" speed="13.65" pos="11.92" lane="e0_0" slope="0.00"/>
    </timestep>
    <timestep time="18.50">
        <vehicle id="background.0" x="228.56" y="-1.60" angle="90.00" type="human" speed="13.03" pos="228.56" lane="e0_0" slope="0.00"/>
        <vehicle id="background.1" x="203.27" y="-1.60" angle="90.00" type="human" speed="13.68" pos="203.27" lane="e0_0" slope="0.00"/>
        <vehicle id="background.2" x="134.63" y="-1.60" angle="90.00" type="human" speed="13.68" pos="134.63" lane="e0_0" slope="0.00"/>
        <vehicle id="background.3" x="18.72" y="-1.60" angle="90.00" type="human" speed="13.60" pos="18.72" lane="e0_0" slope="0.00"/>
    </timestep>
    <timestep time="19.00">
        <vehicle id="background.0" x="235.03" y="-1.60" angle="90.00" type="human" speed="12.95" pos="235.03" lane="e0_0" slope="0.00"/>
        <vehicle id="background.1" x="210.09" y="-1.60" angle="90.00" type="human" speed="13.63" pos="210.09" lane="e0_0" slope="0.00"/>
        <vehicle id="background.2" x="141.40" y="-1.60" angle="90.00" type="human" speed="13.54" pos="141.40" lane="e0_0" slope="0.00"/>
        <vehicle id="background.3" x="25.42" y="-1.60" angle="90.00" type="human" speed="13.40" pos="25.42" lane="e0_0" slope="0.00"/>
    </timestep>
    <timestep time="19.50">
        <vehicle id="background.0" x="241.72" y="-1.60" angle="90.00" type="human" speed="13.38" pos="241.72" lane="e0_0" slope="0.00"/>
        <vehicle id="background.1" x="216.83" y="-1.60" angle="90.00" type="human" speed="13.48" pos="216.83" lane="e0_0" slope="0.00"/>
        <vehicle id="background.2" x="148.26" y="-1.60" angle="90.00" type="human" speed="13.73" pos="148.26" lane="e0_0" slope="0.00"/>
        <vehicle id="background.3" x="32.15" y="-1.60" angle="90.00" type="human" speed="13.46" pos="32.15" lane="e0_0" slope="0.00"/>
    </timestep>
    <timestep time="20.00">
        <vehicle id="background.0" x="248.22" y="-1.60" angle="90.00" type="human" speed="12.99" pos="248.22" lane="e0_0" slope="0.00"/>
        <vehicle id="background.1" x="223.63" y="-1.60" angle="90.00" type="human" speed="13.61" pos="223.63" lane="e0_0" slope="0.00"/>
        <vehicle id="background.2" x="155.05" y="-1.60" angle="90.00" type="human" speed="13.57" pos="155.05" lane="e0_0" slope="0.00"/>
        <vehicle id="background.3" x="39.01" y="-1.60" angle="90.00" type="human" speed="13.72" pos="39.01" lane="e0_0" slope="0.00"/>
    </timestep>
    <timestep time="20.50">
        <vehicle id="background.0" x="254.77" y="-1.60" angle="90.00" type="human" speed="13.11" pos="254.77" lane="e0_0" slope="0.00"/>
        <vehicle id="background.1" x="230.51" y="-1.60" angle="90.00" type="human" speed="13.76" pos="230.51" lane="e0_0" slope="0.00"/>
        <vehicle id="background.2" x="161.79" y="-1.60" angle="90.00" type="human" speed="13.49" pos="161.79" lane="e0_0" slope="0.00"/>
        <vehicle id="background.3" x="45.83" y="-1.60" angle="90.00" type="human" speed="13.64" pos="45.83" lane="e0_0" slope="0.00"/>
        <vehicle id="ego" x="5.10" y="-1.60" angle="90.00" type="ego_glosa_type" speed="0.00" pos="5.10" lane="e0_0" slope="0.00"/>
    </timestep>
    <timestep time="21.00">
        <vehicle id="background.0" x="261.32" y="-1.60" angle="90.00" type="human" speed="13.10" pos="261.32" lane="e0_0" slope="0.00"/>
        <vehicle id="background.1" x="237.37" y="-1.60" angle="90.00" type="human" speed="13.73" pos="237.37" lane="e0_0" slope="0.00"/>
        <vehicle id="background.2" x="168.67" y="-1.60" angle="90.00" type="human" speed="13.76" pos="168.67" lane="e0_0" slope="0.00"/>
        <vehicle id="background.3" x="52.75" y="-1.60" angle="90.00" type="human" speed="13.83" pos="52.75" lane="e0_0" slope="0.00"/>
        <vehicle id="ego" x="5.60" y="-1.60" angle="90.00" type="ego_glosa_type" speed="1.00" pos="5.60" lane="e0_0" slope="0.00"/>
    </timestep>
    <timestep time="21.50">
        <vehicle id="background.0" x="267.84" y="-1.60" angle="90.00" type="human" speed="13.04" pos="267.84" lane="e0_0" slope="0.00"/>
        <vehicle id="background.1" x="244.23" y="-1.60" angle="90.00" type="human" speed="13.72" pos="244.23" lane="e0_0" slope="0.00"/>
        <vehicle id="background.2" x="175.44" y="-1.60" angle="90.00" type="human" speed="13.54" pos="175.44" lane="e0_0" slope="0.00"/>
        <vehicle id="background.3" x="59.64" y="-1.60" angle="90.00" type="human" speed="13.79" pos="59.64" lane="e0_0" slope="0.00"/>
        <vehicle id="ego" x="6.60" y="-1.60" angle="90.00" type="ego_glosa_type" speed="2.00" pos="6.60" lane="e0_0" slope="0.00"/>
    </timestep>
    <timestep time="22.00">
        <vehicle id="background.0" x="274.48" y="-1.60" angle="90.00" type="human" speed="13.28" pos="274.48" lane="e0_0" slope="0.00"/>
        <vehicle id="background.1" x="250.96" y="-1.60" angle="90.00" type="human" speed="13.46" pos="250.96" lane="e0_0" slope="0.00"/>
        <vehicle id="background.2" x="182.21" y="-1.60" angle="90.00" type="human" speed="13.55" pos="182.21" lane="e0_0" slope="0.00"/>
        <vehicle id="background.3" x="66.54" y="-1.60" angle="90.00" type="human" speed="13.80" pos="66.54" lane="e0_0" slope="0.00"/>
        <vehicle id="ego" x="8.10" y="-1.60" angle="90.00" type="ego_glosa_type" speed="3.00" pos="8.10" lane="e0_0" slope="0.00"/>
    </timestep>
    <timestep time="22.50">
        <vehicle id="background.0" x="281.13" y="-1.60" angle="90.00" type="human" speed="13.30" pos="281.13" lane="e0_0" slope="0.00"/>
        <vehicle id="background.1" x="257.86" y="-1.60" angle="90.00" type="human" speed="13.79" pos="257.86" lane="e0_0" slope="0.00"/>
        <vehicle id="background.2" x="189.15" y="-1.60" angle="90.00" type="human" speed="13.88" pos="189.15" lane="e0_0" slope="0.00"/>
        <vehicle id="background.3" x="73.29" y="-1.60" angle="90.00" type="human" speed="13.50" pos="73.29" lane="e0_0" slope="0.00"/>
        <vehicle id="ego" x="10.10" y="-1.60" angle="90.00" type="ego_glosa_type" speed="4.00" pos="10.10" lane="e0_0" slope="0.00"/>
    </timestep>
    <timestep time="23.00">
        <vehicle id="background.0" x="287.63" y="-1.60" angle="90.00" type="human" speed="13.00" pos="287.63" lane="e0_0" slope="0.00"/>
        <vehicle id="background.1" x="264.58" y="-1.60" angle="90.00" type="human" speed="13.45" pos="264.58" lane="e0_0" slope="0.00"/>
        <vehicle id="background.2" x="195.96" y="-1.60" angle="90.00" type="human" speed="13.62" pos="195.96" lane="e0_0" slope="0.00"/>
        <vehicle id="background.3" x="80.22" y="-1.60" angle="90.00" type="human" speed="13.85" pos="80.22" lane="e0_0" slope="0.00"/>
        <vehicle id="ego" x="12.60" y="-1.60" angle="90.00" type="ego_glosa_type" speed="5.00" pos="12.60" lane="e0_0" slope="0.00"/>
    </timestep>
    <timestep time="23.50">
        <vehicle id="background.0" x="294.10" y="-1.60" angle="90.00" type="human" speed="12.94" pos="294.10" lane="e0_0" slope="0.00"/>
        <vehicle id="background.1" x="271.38" y="-1.60" angle="90.00" type="human" speed="13.60" pos="271.38" lane="e0_0" slope="0.00"/>
        <vehicle id="background.2" x="202.80" y="-1.60" angle="90.00" type="human" speed="13.66" pos="202.80" lane="e0_0" slope="0.00"/>
        <vehicle id="background.3" x="87.12" y="-1.60" angle="90.00" type="human" speed="13.80" pos="87.12" lane="e0_0" slope="0.00"/>
        <vehicle id="ego" x="15.60" y="-1.60" angle="90.00" type="ego_glosa_type" speed="6.00" pos="15.60" lane="e0_0" slope="0.00"/>
    </timestep>
    <timestep time="24.00">
        <vehicle id="background.0" x="300.63" y="-1.60" angle="90.00" type="human" speed="13.25" pos="0.63" lane="e1_0" slope="0.00"/>
        <vehicle id="background.1" x="278.03" y="-1.60" angle="90.00" type="human" speed="13.30" pos="278.03" lane="e0_0" slope="0.00"/>
        <vehicle id="background.2" x="209.72" y="-1.60" angle="90.00" type="human" speed="13.85" pos="209.72" lane="e0_0" slope="0.00"/>
        <vehicle id="background.3" x="94.04" y="-1.60" angle="90.00" type="human" speed="13.85" pos="94.04" lane="e0_0" slope="0.00"/>
        <vehicle id="ego" x="19.10" y="-1.60" angle="90.00" type="ego_glosa_type" speed="7.00" pos="19.10" lane="e0_0" slope="0.00"/>
    </timestep>
    <timestep time="24.50">
        <vehicle id="background.0" x="307.09" y="-1.60" angle="90.00" type="human" speed="12.92" pos="7.09" lane="e1_0" slope="0.00"/>
        <vehicle id="background.1" x="284.87" y="-1.60" angle="90.00" type="human" speed="13.67" pos="284.87" lane="e0_0" slope="0.00"/>
        <vehicle id="background.2" x="216.44" y="-1.60" angle="90.00" type="human" speed="13.43" pos="216.44" lane="e0_0" slope="0.00"/>
        <vehicle id="background.3" x="100.95" y="-1.60" angle="90.00" type="human" speed="13.83" pos="100.95" lane="e0_0" slope="0.00"/>
        <vehicle id="ego" x="23.10" y="-1.60" angle="90.00" type="ego_glosa_type" speed="8.00" pos="23.10" lane="e0_0" slope="0.00"/>
    </timestep>
    <timestep time="25.00">
        <vehicle id="background.0" x="313.77" y="-1.60" angle="90.00" type="human" speed="13.37" pos="13.77" lane="e1_0" slope="0.00"/>
        <vehicle id="background.1" x="291.42" y="-1.60" angle="90.00" type="human" speed="13.11" pos="291.42" lane="e0_0" slope="0.00"/>
        <vehicle id="background.2" x="223.37" y="-1.60" angle="90.00" type="human" speed="13.87" pos="223.37" lane="e0_0" slope="0.00"/>
        <vehicle id="background.3" x="107.66" y="-1.60" angle="90.00" type="human" speed="13.41" pos="107.66" lane="e0_0" slope="0.00"/>
        <vehicle id="ego" x="27.60" y="-1.60" angle="90.00" type="ego_glosa_type" speed="9.00" pos="27.60" lane="e0_0" slope="0.00"/>
    </timestep>
    <timestep time="25.50">
        <vehicle id="background.0" x="320.40" y="-1.60" angle="90.00" type="human" speed="13.25" pos="20.40" lane="e1_0" slope="0.00"/>
        <vehicle id="background.1" x="298.21" y="-1.60" angle="90.00" type="human" speed="13.58" pos="298.21" lane="e0_0" slope="0.00"/>
        <vehicle id="background.2" x="230.14" y="-1.60" angle="90.00" type="human" speed="13.53" pos="230.14" lane="e0_0" slope="0.00"/>
        <vehicle id="background.3" x="114.49" y="-1.60" angle="90.00" type="human" speed="13.66" pos="114.49" lane="e0_0" slope="0.00"/>
        <vehicle id="ego" x="32.60" y="-1.60" angle="90.00" type="ego_glosa_type" speed="10.00" pos="32.60" lane="e0_0" slope="0.00"/>
    </timestep>
    <timestep time="26.00">
        <vehicle id="background.0" x="326.90" y="-1.60" angle="90.00" type="human" speed="13.00" pos="26.90" lane="e1_0" slope="0.00"/>
        <vehicle id="background.1" x="304.70" y="-1.60" angle="90.00" type="human" speed="13.16" pos="4.70" lane="e1_0" slope="0.00"/>
        <vehicle id="background.2" x="236.98" y="-1.60" angle="90.00" type="human" speed="13.69" pos="236.98" lane="e0_0" slope="0.00"/>
        <vehicle id="background.3" x="121.32" y="-1.60" angle="90.00" type="human" speed="13.66" pos="121.32" lane="e0_0" slope="0.00"/>
        <vehicle id="ego" x="38.10" y="-1.60" angle="90.00" type="ego_glosa_type" speed="11.00" pos="38.10" lane="e0_0" slope="0.00"/>
    </timestep>
    <timestep time="26.50">
        <vehicle id="background.0" x="333.44" y="-1.60" angle="90.00" type="human" speed="13.08" pos="33.44" lane="e1_0" slope="0.00"/>
        <vehicle id="background.1" x="311.33" y="-1.60" angle="90.00" type="human" speed="13.28" pos="11.33" lane="e1_0" slope="0.00"/>
        <vehicle id="background.2" x="243.83" y="-1.60" angle="90.00" type="human" speed="13.69" pos="243.83" lane="e0_0" slope="0.00"/>
        <vehicle id="background.3" x="128.06" y="-1.60" angle="90.00" type="human" speed="13.48" pos="128.06" lane="e0_0" slope="0.00"/>
        <vehicle id="ego" x="44.10" y="-1.60" angle="90.00" type="ego_glosa_type" speed="12.00" pos="44.10" lane="e0_0" slope="0.00"/>
    </timestep>
    <timestep time="27.00">
        <vehicle id="background.0" x="340.09" y="-1.60" angle="90.00" type="human" speed="13.32" pos="40.09" lane="e1_0" slope="0.00"/>
        <vehicle id="background.1" x="317.94" y="-1.60" angle="90.00" type="human" speed="13.21" pos="17.94" lane="e1_0" slope="0.00"/>
        <vehicle id="background.2" x="250.77" y="-1.60" angle="90.00" type="human" speed="13.87" pos="250.77" lane="e0_0" slope="0.00"/>
        <vehicle id="background.3" x="134.92" y="-1.60" angle="90.00" type="human" speed="13.73" pos="134.92" lane="e0_0" slope="0.00"/>
        <vehicle id="ego" x="50.60" y="-1.60" angle="90.00" type="ego_glosa_type" speed="13.00" pos="50.60" lane="e0_0" slope="0.00"/>
    </timestep>
    <timestep time="27.50">
        <vehicle id="background.0" x="346.71" y="-1.60" angle="90.00" type="human" speed="13.24" pos="46.71" lane="e1_0" slope="0.00"/>
        <vehicle id="background.1" x="324.73" y="-1.60" angle="90.00" type="human" speed="13.58" pos="24.73" lane="e1_0" slope="0.00"/>
        <vehicle id="background.2" x="257.51" y="-1.60" angle="90.00" type="human" speed="13.49" pos="257.51" lane="e0_0" slope="0.00"/>
        <vehicle id="background.3" x="141.75" y="-1.60" angle="90.00" type="human" speed="13.65" pos="141.75" lane="e0_0" slope="0.00"/>
        <vehicle id="ego" x="57.31" y="-1.60" angle="90.00" type="ego_glosa_type" speed="13.41" pos="57.31" lane="e0_0" slope="0.00"/>
    </timestep>
    <timestep time="28.00">
        <vehicle id="background.1" x="331.46" y="-1.60" angle="90.00" type="human" speed="13.45" pos="31.46" lane="e1_0" slope="0.00"/>
        <vehicle id="background.2" x="264.38" y="-1.60" angle="90.00" type="human" speed="13.75" pos="264.38" lane="e0_0" slope="0.00"/>
        <vehicle id="background.3" x="148.52" y="-1.60" angle="90.00" type="human" speed="13.54" pos="148.52" lane="e0_0" slope="0.00"/>
        <vehicle id="ego" x="64.01" y="-1.60" angle="90.00" type="ego_glosa_type" speed="13.41" pos="64.01" lane="e0_0" slope="0.00"/>
    </timestep>
    <timestep time="28.50">
        <vehicle id="background.1" x="338.34" y="-1.60" angle="90.00" type="human" speed="13.77" pos="38.34" lane="e1_0" slope="0.00"/>
        <vehicle id="background.2" x="271.12" y="-1.60" angle="90.00" type="human" speed="13.47" pos="271.12" lane="e0_0" slope="0.00"/>
        <vehicle id="background.3" x="155.45" y="-1.60" angle="90.00" type="human" speed="13.86" pos="155.45" lane="e0_0" slope="0.00"/>
        <vehicle id="ego" x="70.72" y="-1.60" angle="90.00" type="ego_glosa_type" speed="13.41" pos="70.72" lane="e0_0" slope="0.00"/>
    </timestep>
    <timestep time="29.00">
        <vehicle id="background.1" x="345.04" y="-1.60" angle="90.00" type="human" speed="13.41" pos="45.04" lane="e1_0" slope="0.00"/>
        <vehicle id="background.2" x="278.02" y="-1.60" angle="90.00" type="human" speed="13.81" pos="278.02" lane="e0_0" slope="0.00"/>
        <vehicle id="background.3" x="162.21" y="-1.60" angle="90.00" type="human" speed="13.51" pos="162.21" lane="e0_0" slope="0.00"/>
        <vehicle id="ego" x="77.43" y="-1.60" angle="90.00" type="ego_glosa_type" speed="13.41" pos="77.43" lane="e0_0" slope="0.00"/>
    </timestep>
    <timestep time="29.50">
        <vehicle id="background.2" x="284.74" y="-1.60" angle="90.00" type="human" speed="13.43" pos="284.74" lane="e0_0" slope="0.00"/>
        <vehicle id="background.3" x="169.01" y="-1.60" angle="90.00" type="human" speed="13.60" pos="169.01" lane="e0_0" slope="0.00"/>
        <vehicle id="ego" x="84.14" y="-1.60" angle="90.00" type="ego_glosa_type" speed="13.41" pos="84.14" lane="e0_0" slope="0.00"/>
    </timestep>
    <timestep time="30.00">
        <vehicle id="background.2" x="291.63" y="-1.60" angle="90.00" type="human" speed="13.78" pos="291.63" lane="e0_0" slope="0.00"/>
        <vehicle id="background.3" x="175.95" y="-1.60" angle="90.00" type="human" speed="13.88" pos="175.95" lane="e0_0" slope="0.00"/>
        <vehicle id="ego" x="90.84" y="-1.60" angle="90.00" type="ego_glosa_type" speed="13.41" pos="90.84" lane="e0_0" slope="0.00"/>
    </timestep>