<?xml version="1.0" encoding="UTF-8"?>

<!-- generated on 2026-05-14 17:06:39 by Eclipse SUMO sumo Version 1.24.0
<sumoConfiguration xmlns:xsi="http://www.w3.org/2001/XMLSchema-instance" xsi:noNamespaceSchemaLocation="http://sumo.dlr.de/xsd/sumoConfiguration.xsd">

    <input>
        <net-file value="scenarios/simple_arterial/simple_arterial.net.xml"/>
        <route-files value="scenarios/simple_arterial/simple_arterial_glosa.rou.xml"/>
        <additional-files value="scenarios/simple_arterial/simple_arterial.tls.xml"/>
    </input>

    <output>
        <fcd-output value="runs/fcd_expert_glosa/episode_00068_seed_110.fcd.xml"/>
    </output>

    <time>
        <begin value="0"/>
        <end value="900"/>
        <step-length value="0.5"/>
    </time>

    <report>
        <no-warnings value="true"/>
    </report>

    <traci_server>
        <remote-port value="37703"/>
    </traci_server>

    <random_number>
        <seed value="110"/>
    </random_number>

</sumoConfiguration>
-->

<fcd-export xmlns:xsi="http://www.w3.org/2001/XMLSchema-instance" xsi:noNamespaceSchemaLocation="http://sumo.dlr.de/xsd/fcd_file.xsd">
    <timestep time="0.00"/>
    <timestep time="0.50"/>
    <timestep time="1.00"/>
    <timestep time="1.50"/>
    <timestep time="2.00"/>
    <timestep time="2.50"/>
    <timestep time="3.00"/>
    <timestep time="3.50"/>
    <timestep time="4.00"/>
    <timestep time="4.50"/>
    <timestep time="5.00"/>
    <timestep time="5.50"/>
    <timestep time="6.00"/>
    <timestep time="6.50"/>
    <timestep time="7.00"/>
    <timestep time="7.50"/>
    <timestep time="8.00"/>
    <timestep time="8.50"/>
    <timestep time="9.00"/>
    <timestep time="9.50"/>
    <timestep time="10.00"/>
    <timestep time="10.50"/>
    <timestep time="11.00"/>
    <timestep time="11.50"/>
    <timestep time="12.00"/>
    <timestep time="12.50"/>
    <timestep time="13.00">
        <vehicle id="background.0" x="5.10" y="-1.60" angle="90.00" type="human" speed="13.68" pos="5.10" lane="e0_0" slope="0.00"/>
    </timestep>
    <timestep time="13.50">
        <vehicle id="background.0" x="11.79" y="-1.60" angle="90.00" type="human" speed="13.37" pos="11.79" lane="e0_0" slope="0.00"/>
    </timestep>
    <timestep time="14.00">
        <vehicle id="background.0" x="18.60" y="-1.60" angle="90.00" type="human" speed="13.62" pos="18.60" lane="e0_0" slope="0.00"/>
    </timestep>
    <timestep time="14.50">
        <vehicle id="background.0" x="25.39" y="-1.60" angle="90.00" type="human" speed="13.60" pos="25.39" lane="e0_0" slope="0.00"/>
    </timestep>
    <timestep time="15.00">
        <vehicle id="background.0" x="32.16" y="-1.60" angle="90.00" type="human" speed="13.53" pos="32.16" lane="e0_0" slope="0.00"/>
    </timestep>
    <timestep time="15.50">
        <vehicle id="background.0" x="38.89" y="-1.60" angle="90.00" type="human" speed="13.46" pos="38.89" lane="e0_0" slope="0.00"/>
    </timestep>
    <timestep time="16.00">
        <vehicle id="background.0" x="45.52" y="-1.60" angle="90.00" type="human" speed="13.25" pos="45.52" lane="e0_0" slope="0.00"/>
        <vehicle id="background.1" x="5.10" y="-1.60" angle="90.00" type="human" speed="13.89" pos="5.10" lane="e0_0" slope="0.00"/>
    </timestep>
    <timestep time="16.50">
        <vehicle id="background.0" x="52.17" y="-1.60" angle="90.00" type="human" speed="13.30" pos="52.17" lane="e0_0" slope="0.00"/>
        <vehicle id="background.1" x="11.97" y="-1.60" angle="90.00" type="human" speed="13.74" pos="11.97" lane="e0_0" slope="0.00"/>
    </timestep>
    <timestep time="17.00">
        <vehicle id="background.0" x="58.93" y="-1.60" angle="90.00" type="human" speed="13.53" pos="58.93" lane="e0_0" slope="0.00"/>
        <vehicle id="background.1" x="18.82" y="-1.60" angle="90.00" type="human" speed="13.70" pos="18.82" lane="e0_0" slope="0.00"/>
    </timestep>
    <timestep time="17.50">
        <vehicle id="background.0" x="65.73" y="-1.60" angle="90.00" type="human" speed="13.61" pos="65.73" lane="e0_0" slope="0.00"/>
        <vehicle id="background.1" x="25.71" y="-1.60" angle="90.00" type="human" speed="13.79" pos="25.71" lane="e0_0" slope="0.00"/>
    </timestep>
    <timestep time="18.00">
        <vehicle id="background.0" x="72.57" y="-1.60" angle="90.00" type="human" speed="13.67" pos="72.57" lane="e0_0" slope="0.00"/>
        <vehicle id="background.1" x="32.50" y="-1.60" angle="90.00" type="human" speed="13.57" pos="32.50" lane="e0_0" slope="0.00"/>
    </timestep>
    <timestep time="18.50">
        <vehicle id="background.0" x="79.30" y="-1.60" angle="90.00" type="human" speed="13.47" pos="79.30" lane="e0_0" slope="0.00"/>
        <vehicle id="background.1" x="39.29" y="-1.60" angle="90.00" type="human" speed="13.59" pos="39.29" lane="e0_0" slope="0.00"/>
    </timestep>
    <timestep time="19.00">
        <vehicle id="background.0" x="86.08" y="-1.60" angle="90.00" type="human" speed="13.56" pos="86.08" lane="e0_0" slope="0.00"/>
        <vehicle id="background.1" x="46.06" y="-1.60" angle="90.00" type="human" speed="13.53" pos="46.06" lane="e0_0" slope="0.00"/>
    </timestep>
    <timestep time="19.50">
        <vehicle id="background.0" x="92.84" y="-1.60" angle="90.00" type="human" speed="13.51" pos="92.84" lane="e0_0" slope="0.00"/>
        <vehicle id="background.1" x="52.77" y="-1.60" angle="90.00" type="human" speed="13.43" pos="52.77" lane="e0_0" slope="0.00"/>
    </timestep>
    <timestep time="20.00">
        <vehicle id="background.0" x="99.43" y="-1.60" angle="90.00" type="human" speed="13.18" pos="99.43" lane="e0_0" slope="0.00"/>
        <vehicle id="background.1" x="59.69" y="-1.60" angle="90.00" type="human" speed="13.84" pos="59.69" lane="e0_0" slope="0.00"/>
    </timestep>
    <timestep time="20.50">
        <vehicle id="background.0" x="106.21" y="-1.60" angle="90.00" type="human" speed="13.56" pos="106.21" lane="e0_0" slope="0.00"/>
        <vehicle id="background.1" x="66.50" y="-1.60" angle="90.00" type="human" speed="13.63" pos="66.50" lane="e0_0" slope="0.00"/>
    </timestep>
    <timestep time="21.00">
        <vehicle id="background.0" x="113.03" y="-1.60" angle="90.00" type="human" speed="13.64" pos="113.03" lane="e0_0" slope="0.00"/>
        <vehicle id="background.1" x="73.38" y="-1.60" angle="90.00" type="human" speed="13.75" pos="73.38" lane="e0_0" slope="0.00"/>
    </timestep>
    <timestep time="21.50">
        <vehicle id="background.0" x="119.71" y="-1.60" angle="90.00" type="human" speed="13.35" pos="119.71" lane="e0_0" slope="0.00"/>
        <vehicle id="background.1" x="80.16" y="-1.60" angle="90.00" type="human" speed="13.57" pos="80.16" lane="e0_0" slope="0.00"/>
    </timestep>
    <timestep time="22.00">
        <vehicle id="background.0" x="126.39" y="-1.60" angle="90.00" type="human" speed="13.37" pos="126.39" lane="e0_0" slope="0.00"/>
        <vehicle id="background.1" x="87.06" y="-1.60" angle="90.00" type="human" speed="13.80" pos="87.06" lane="e0_0" slope="0.00"/>
    </timestep>
    <timestep time="22.50">
        <vehicle id="background.0" x="133.16" y="-1.60" angle="90.00" type="human" speed="13.54" pos="133.16" lane="e0_0" slope="0.00"/>
        <vehicle id="background.1" x="93.83" y="-1.60" angle="90.00" type="human" speed="13.53" pos="93.83" lane="e0_0" slope="0.00"/>
    </timestep>
    <timestep time="23.00">
        <vehicle id="background.0" x="139.89" y="-1.60" angle="90.00" type="human" speed="13.45" pos="139.89" lane="e0_0" slope="0.00"/>
        <vehicle id="background.1" x="100.68" y="-1.60" angle="90.00" type="human" speed="13.70" pos="100.68" lane="e0_0" slope="0.00"/>
    </timestep>
    <timestep time="23.50">
        <vehicle id="background.0" x="146.70" y="-1.60" angle="90.00" type="human" speed="13.62" pos="146.70" lane="e0_0" slope="0.00"/>
        <vehicle id="background.1" x="107.47" y="-1.60" angle="90.00" type="human" speed="13.58" pos="107.47" lane="e0_0" slope="0.00"/>
    </timestep>
    <timestep time="24.00">
        <vehicle id="background.0" x="153.52" y="-1.60" angle="90.00" type="human" speed="13.64" pos="153.52" lane="e0_0" slope="0.00"/>
        <vehicle id="background.1" x="114.36" y="-1.60" angle="90.00" type="human" speed="13.78" pos="114.36" lane="e0_0" slope="0.00"/>
    </timestep>
    <timestep time="24.50">
        <vehicle id="background.0" x="160.13" y="-1.60" angle="90.00" type="human" speed="13.23" pos="160.13" lane="e0_0" slope="0.00"/>
        <vehicle id="background.1" x="121.11" y="-1.60" angle="90.00" type="human" speed="13.51" pos="121.11" lane="e0_0" slope="0.00"/>
    </timestep>
    <timestep time="25.00">
        <vehicle id="background.0" x="166.77" y="-1.60" angle="90.00" type="human" speed="13.28" pos="166.77" lane="e0_0" slope="0.00"/>
        <vehicle id="background.1" x="127.81" y="-1.60" angle="90.00" type="human" speed="13.40" pos="127.81" lane="e0_0" slope="0.00"/>
        <vehicle id="background.2" x="5.10" y="-1.60" angle="90.00" type="human" speed="13.71" pos="5.10" lane="e0_0" slope="0.00"/>
    </timestep>
    <timestep time="25.50">
        <vehicle id="background.0" x="173.40" y="-1.60" angle="90.00" type="human" speed="13.26" pos="173.40" lane="e0_0" slope="0.00"/>
        <vehicle id="background.1" x="134.63" y="-1.60" angle="90.00" type="human" speed="13.65" pos="134.63" lane="e0_0" slope="0.00"/>
        <vehicle id="background.2" x="11.75" y="-1.60" angle="90.00" type="human" speed="13.31" pos="11.75" lane="e0_0" slope="0.00"/>
    </timestep>
    <timestep time="26.00">
        <vehicle id="background.0" x="180.05" y="-1.60" angle="90.00" type="human" speed="13.29" pos="180.05" lane="e0_0" slope="0.00"/>
        <vehicle id="background.1" x="141.33" y="-1.60" angle="90.00" type="human" speed="13.39" pos="141.33" lane="e0_0" slope="0.00"/>
        <vehicle id="background.2" x="18.44" y="-1.60" angle="90.00" type="human" speed="13.37" pos="18.44" lane="e0_0" slope="0.00"/>
    </timestep>
    <timestep time="26.50">
        <vehicle id="background.0" x="186.74" y="-1.60" angle="90.00" type="human" speed="13.39" pos="186.74" lane="e0_0" slope="0.00"/>
        <vehicle id="background.1" x="148.06" y="-1.60" angle="90.00" type="human" speed="13.47" pos="148.06" lane="e0_0" slope="0.00"/>
        <vehicle id="background.2" x="25.09" y="-1.60" angle="90.00" type="human" speed="13.31" pos="25.09" lane="e0_0" slope="0.00"/>
    </timestep>
    <timestep time="27.00">
        <vehicle id="background.0" x="193.40" y="-1.60" angle="90.00" type="human" speed="13.32" pos="193.40" lane="e0_0" slope="0.00"/>
        <vehicle id="background.1" x="154.90" y="-1.60" angle="90.00" type="human" speed="13.68" pos="154.90" lane="e0_0" slope="0.00"/>
        <vehicle id="background.2" x="31.88" y="-1.60" angle="90.00" type="human" speed="13.58" pos="31.88" lane="e0_0" slope="0.00"/>
    </timestep>
    <timestep time="27.50">
        <vehicle id="background.0" x="200.24" y="-1.60" angle="90.00" type="human" speed="13.67" pos="200.24" lane="e0_0" slope="0.00"/>
        <vehicle id="background.1" x="161.65" y="-1.60" angle="90.00" type="human" speed="13.49" pos="161.65" lane="e0_0" slope="0.00"/>
        <vehicle id="background.2" x="38.63" y="-1.60" angle="90.00" type="human" speed="13.49" pos="38.63" lane="e0_0" slope="0.00"/>
    </timestep>
    <timestep time="28.00">
        <vehicle id="background.0" x="206.96" y="-1.60" angle="90.00" type="human" speed="13.46" pos="206.96" lane="e0_0" slope="0.00"/>
        <vehicle id="background.1" x="168.57" y="-1.60" angle="90.00" type="human" speed="13.84" pos="168.57" lane="e0_0" slope="0.00"/>
        <vehicle id="background.2" x="45.27" y="-1.60" angle="90.00" type="human" speed="13.28" pos="45.27" lane="e0_0" slope="0.00"/>
    </timestep>
    <timestep time="28.50">
        <vehicle id="background.0" x="213.60" y="-1.60" angle="90.00" type="human" speed="13.27" pos="213.60" lane="e0_0" slope="0.00"/>
        <vehicle id="background.1" x="175.28" y="-1.60" angle="90.00" type="human" speed="13.42" pos="175.28" lane="e0_0" slope="0.00"/>
        <vehicle id="background.2" x="51.95" y="-1.60" angle="90.00" type="human" speed="13.37" pos="51.95" lane="e0_0" slope="0.00"/>
    </timestep>
    <timestep time="29.00">
        <vehicle id="background.0" x="220.36" y="-1.60" angle="90.00" type="human" speed="13.53" pos="220.36" lane="e0_0" slope="0.00"/>
        <vehicle id="background.1" x="182.08" y="-1.60" angle="90.00" type="human" speed="13.61" pos="182.08" lane="e0_0" slope="0.00"/>
        <vehicle id="background.2" x="58.75" y="-1.60" angle="90.00" type="human" speed="13.60" pos="58.75" lane="e0_0" slope="0.00"/>
    </timestep>
    <timestep time="29.50">
        <vehicle id="background.0" x="227.14" y="-1.60" angle="90.00" type="human" speed="13.54" pos="227.14" lane="e0_0" slope="0.00"/>
        <vehicle id="background.1" x="188.89" y="-1.60" angle="90.00" type="human" speed="13.61" pos="188.89" lane="e0_0" slope="0.00"/>
        <vehicle id="background.2" x="65.35" y="-1.60" angle="90.00" type="human" speed="13.22" pos="65.35" lane="e0_0" slope="0.00"/>
    </timestep>
    <timestep time="30.00">
        <vehicle id="background.0" x="233.89" y="-1.60" angle="90.00" type="human" speed="13.51" pos="233.89" lane="e0_0" slope="0.00"/>
        <vehicle id="background.1" x="195.80" y="-1.60" angle="90.00" type="human" speed="13.82" pos="195.80" lane="e0_0" slope="0.00"/>
        <vehicle id="background.2" x="72.03" y="-1.60" angle="90.00" type="human" speed="13.35" pos="72.03" lane="e0_0" slope="0.00"/>
    </timestep>
    <timestep time="30.50">
        <vehicle id="background.0" x="240.58" y="-1.60" angle="90.00" type="human" speed="13.37" pos="240.58" lane="e0_0" slope="0.00"/>
        <vehicle id="background.1" x="202.66" y="-1.60" angle="90.00" type="human" speed="13.72" pos="202.66" lane="e0_0" slope="0.00"/>
        <vehicle id="background.2" x="78.76" y="-1.60" angle="90.00" type="human" speed="13.47" pos="78.76" lane="e0_0" slope="0.00"/>
    </timestep>
    <timestep time="31.00">
        <vehicle id="background.0" x="247.34" y="-1.60" angle="90.00" type="human" speed="13.53" pos="247.34" lane="e0_0" slope="0.00"/>
        <vehicle id="background.1" x="209.50" y="-1.60" angle="90.00" type="human" speed="13.69" pos="209.50" lane="e0_0" slope="0.00"/>
        <vehicle id="background.2" x="85.49" y="-1.60" angle="90.00" type="human" speed="13.45" pos="85.49" lane="e0_0" slope="0.00"/>
    </timestep>
    <timestep time="31.50">
        <vehicle id="background.0" x="254.00" y="-1.60" angle="90.00" type="human" speed="13.32" pos="254.00" lane="e0_0" slope="0.00"/>
        <vehicle id="background.1" x="216.43" y="-1.60" angle="90.00" type="human" speed="13.86" pos="216.43" lane="e0_0" slope="0.00"/>
        <vehicle id="background.2" x="92.27" y="-1.60" angle="90.00" type="human" speed="13.55" pos="92.27" lane="e0_0" slope="0.00"/>
    </timestep>
    <timestep time="32.00">
        <vehicle id="background.0" x="260.68" y="-1.60" angle="90.00" type="human" speed="13.36" pos="260.68" lane="e0_0" slope="0.00"/>
        <vehicle id="background.1" x="223.28" y="-1.60" angle="90.00" type="human" speed="13.69" pos="223.28" lane="e0_0" slope="0.00"/>
        <vehicle id="background.2" x="98.96" y="-1.60" angle="90.00" type="human" speed="13.38" pos="98.96" lane="e0_0" slope="0.00"/>
    </timestep>
    <timestep time="32.50">
        <vehicle id="background.0" x="267.44" y="-1.60" angle="90.00" type="human" speed="13.52" pos="267.44" lane="e0_0" slope="0.00"/>
        <vehicle id="background.1" x="230.22" y="-1.60" angle="90.00" type="human" speed="13.89" pos="230.22" lane="e0_0" slope="0.00"/>
        <vehicle id="background.2" x="105.58" y="-1.60" angle="90.00" type="human" speed="13.24" pos="105.58" lane="e0_0" slope="0.00"/>
    </timestep>
    <timestep time="33.00">
        <vehicle id="background.0" x="274.07" y="-1.60" angle="90.00" type="human" speed="13.25" pos="274.07" lane="e0_0" slope="0.00"/>
        <vehicle id="background.1" x="236.93" y="-1.60" angle="90.00" type="human" speed="13.43" pos="236.93" lane="e0_0" slope="0.00"/>
        <vehicle id="background.2" x="112.41" y="-1.60" angle="90.00" type="human" speed="13.68" pos="112.41" lane="e0_0" slope="0.00"/>
    </timestep>
    <timestep time="33.50">
        <vehicle id="background.0" x="280.70" y="-1.60" angle="90.00" type="human" speed="13.27" pos="280.70" lane="e0_0" slope="0.00"/>
        <vehicle id="background.1" x="243.79" y="-1.60" angle="90.00" type="human" speed="13.71" pos="243.79" lane="e0_0" slope="0.00"/>
        <vehicle id="background.2" x="119.26" y="-1.60" angle="90.00" type="human" speed="13.70" pos="119.26" lane="e0_0" slope="0.00"/>
    </timestep>
    <timestep time="34.00">
        <vehicle id="background.0" x="287.34" y="-1.60" angle="90.00" type="human" speed="13.28" pos="287.34" lane="e0_0" slope="0.00"/>
        <vehicle id="background.1" x="250.50" y="-1.60" angle="90.00" type="human" speed="13.42" pos="250.50" lane="e0_0" slope="0.00"/>
        <vehicle id="background.2" x="126.08" y="-1.60" angle="90.00" type="human" speed="13.64" pos="126.08" lane="e0_0" slope="0.00"/>
    </timestep>
    <timestep time="34.50">
        <vehicle id="background.0" x="293.95" y="-1.60" angle="90.00" type="human" speed="13.21" pos="293.95" lane="e0_0" slope="0.00"/>
        <vehicle id="background.1" x="257.37" y="-1.60" angle="90.00" type="human" speed="13.73" pos="257.37" lane="e0_0" slope="0.00"/>
        <vehicle id="background.2" x="132.74" y="-1.60" angle="90.00" type="human" speed="13.31" pos="132.74" lane="e0_0" slope="0.00"/>
    </timestep>
    <timestep time="35.00">
        <vehicle id="background.0" x="300.63" y="-1.60" angle="90.00" type="human" speed="13.56" pos="0.63" lane="e1_0" slope="0.00"/>
        <vehicle id="background.1" x="264.19" y="-1.60" angle="90.00" type="human" speed="13.65" pos="264.19" lane="e0_0" slope="0.00"/>
        <vehicle id="background.2" x="139.51" y="-1.60" angle="90.00" type="human" speed="13.53" pos="139.51" lane="e0_0" slope="0.00"/>
    </timestep>
    <timestep time="35.50">
        <vehicle id="background.0" x="307.37" y="-1.60" angle="90.00" type="human" speed="13.49" pos="7.37" lane="e1_0" slope="0.00"/>
        <vehicle id="background.1" x="270.89" y="-1.60" angle="90.00" type="human" speed="13.41" pos="270.89" lane="e0_0" slope="0.00"/>
        <vehicle id="background.2" x="146.15" y="-1.60" angle="90.00" type="human" speed="13.29" pos="146.15" lane="e0_0" slope="0.00"/>
    </timestep>
    <timestep time="36.00">
        <vehicle id="background.0" x="314.04" y="-1.60" angle="90.00" type="human" speed="13.33" pos="14.04" lane="e1_0" slope="0.00"/>
        <vehicle id="background.1" x="277.73" y="-1.60" angle="90.00" type="human" speed="13.68" pos="277.73" lane="e0_0" slope="0.00"/>
        <vehicle id="background.2" x="152.92" y="-1.60" angle="90.00" type="human" speed="13.55" pos="152.92" lane="e0_0" slope="0.00"/>
    </timestep>
    <timestep time="36.50">
        <vehicle id="background.0" x="320.72" y="-1.60" angle="90.00" type="human" speed="13.36" pos="20.72" lane="e1_0" slope="0.00"/>
        <vehicle id="background.1" x="284.60" y="-1.60" angle="90.00" type="human" speed="13.73" pos="284.60" lane="e0_0" slope="0.00"/>
        <vehicle id="background.2" x="159.71" y="-1.60" angle="90.00" type="human" speed="13.57" pos="159.71" lane="e0_0" slope="0.00"/>
    </timestep>
    <timestep time="37.00">
        <vehicle id="background.0" x="327.48" y="-1.60" angle="90.00" type="human" speed="13.52" pos="27.48" lane="e1_0" slope="0.00"/>
        <vehicle id="background.1" x="291.54" y="-1.60" angle="90.00" type="human" speed="13.88" pos="291.54" lane="e0_0" slope="0.00"/>
        <vehicle id="background.2" x="166.41" y="-1.60" angle="90.00" type="human" speed="13.40" pos="166.41" lane="e0_0" slope="0.00"/>
    </timestep>
    <timestep time="37.50">
        <vehicle id="background.0" x="334.08" y="-1.60" angle="90.00" type="human" speed="13.21" pos="34.08" lane="e1_0" slope="0.00"/>
        <vehicle id="background.1" x="298.48" y="-1.60" angle="90.00" type="human" speed="13.87" pos="298.48" lane="e0_0" slope="0.00"/>
        <vehicle id="background.2" x="173.19" y="-1.60" angle="90.00" type="human" speed="13.56" pos="173.19" lane="e0_0" slope="0.00"/>
    </timestep>
    <timestep time="38.00">
        <vehicle id="background.0" x="340.71" y="-1.60" angle="90.00" type="human" speed="13.26" pos="40.71" lane="e1_0" slope="0.00"/>
        <vehicle id="background.1" x="305.31" y="-1.60" angle="90.00" type="human" speed="13.86" pos="5.31" lane="e1_0" slope="0.00"/>
        <vehicle id="background.2" x="179.98" y="-1.60" angle="90.00" type="human" speed="13.58" pos="179.98" lane="e0_0" slope="0.00"/>
    </timestep>
    <timestep time="38.50">
        <vehicle id="background.0" x="347.53" y="-1.60" angle="90.00" type="human" speed="13.64" pos="47.53" lane="e1_0" slope="0.00"/>
        <vehicle id="background.1" x="312.13" y="-1.60" angle="90.00" type="human" speed="13.65" pos="12.13" lane="e1_0" slope="0.00"/>
        <vehicle id="background.2" x="186.81" y="-1.60" angle="90.00" type="human" speed="13.65" pos="186.81" lane="e0_0" slope="0.00"/>
    </timestep>
    <timestep time="39.00">
        <vehicle id="background.1" x="318.93" y="-1.60" angle="90.00" type="human" speed="13.59" pos="18.93" lane="e1_0" slope="0.00"/>
        <vehicle id="background.2" x="193.46" y="-1.60" angle="90.00" type="human" speed="13.31" pos="193.46" lane="e0_0" slope="0.00"/>
    </timestep>
    <timestep time="39.50">
        <vehicle id="background.1" x="325.66" y="-1.60" angle="90.00" type="human" speed="13.47" pos="25.66" lane="e1_0" slope="0.00"/>
        <vehicle id="background.2" x="200.31" y="-1.60" angle="90.00" type="human" speed="13.70" pos="200.31" lane="e0_0" slope="0.00"/>
        <vehicle id="background.3" x="5.10" y="-1.60" angle="90.00" type="human" speed="13.89" pos="5.10" lane="e0_0" slope="0.00"/>
    </timestep>
    <timestep time="40.00">
        <vehicle id="background.1" x="332.55" y="-1.60" angle="90.00" type="human" speed="13.76" pos="32.55" lane="e1_0" slope="0.00"/>
        <vehicle id="background.2" x="206.96" y="-1.60" angle="90.00" type="human" speed="13.31" pos="206.96" lane="e0_0" slope="0.00"/>
        <vehicle id="background.3" x="11.99" y="-1.60" angle="90.00" type="human" speed="13.78" pos="11.99" lane="e0_0" slope="0.00"/>
    </timestep>
    <timestep time="40.50">
        <vehicle id="background.1" x="339.48" y="-1.60" angle="90.00" type="human" speed="13.86" pos="39.48" lane="e1_0" slope="0.00"/>
        <vehicle id="background.2" x="213.67" y="-1.60" angle="90.00" type="human" speed="13.42" pos="213.67" lane="e0_0" slope="0.00"/>
        <vehicle id="background.3" x="18.80" y="-1.60" angle="90.00" type="human" speed="13.62" pos="18.80" lane="e0_0" slope="0.00"/>
    </timestep>
    <timestep time="41.00">
        <vehicle id="background.1" x="346.19" y="-1.60" angle="90.00" type="human" speed="13.42" pos="46.19" lane="e1_0" slope="0.00"/>
        <vehicle id="background.2" x="220.40" y="-1.60" angle="90.00" type="human" speed="13.46" pos="220.40" lane="e0_0" slope="0.00"/>
        <vehicle id="background.3" x="25.70" y="-1.60" angle="90.00" type="human" speed="13.80" pos="25.70" lane="e0_0" slope="0.00"/>
    </timestep>
    <timestep time="41.50">
        <vehicle id="background.2" x="227.16" y="-1.60" angle="90.00" type="human" speed="13.53" pos="227.16" lane="e0_0" slope="0.00"/>
        <vehicle id="background.3" x="32.60" y="-1.60" angle="90.00" type="human" speed="13.80" pos="32.60" lane="e0_0" slope="0.00"/>
    </timestep>
    <timestep time="42.00">
        <vehicle id="background.2" x="233.92" y="-1.60" angle="90.00" type="human" speed="13.51" pos="233.92" lane="e0_0" slope="0.00"/>
        <vehicle id="background.3" x="39.51" y="-1.60" angle="90.00" type="human" speed="13.82" pos="39.51" lane="e0_0" slope="0.00"/>
    </timestep>
    <timestep time="42.50">
        <vehicle id="background.2" x="240.55" y="-1.60" angle="90.00" type="human" speed="13.27" pos="240.55" lane="e0_0" slope="0.00"/>
        <vehicle id="background.3" x="46.28" y="-1.60" angle="90.00" type="human" speed="13.55" pos="46.28" lane="e0_0" slope="0.00"/>
    </timestep>
    <timestep time="43.00">
        <vehicle id="background.2" x="247.18" y="-1.60" angle="90.00" type="human" speed="13.26" pos="247.18" lane="e0_0" slope="0.00"/>
        <vehicle id="background.3" x="53.11" y="-1.60" angle="90.00" type="human" speed="13.66" pos="53.11" lane="e0_0" slope="0.00"/>
    </timestep>
    <timestep time="43.50">
        <vehicle id="background.2" x="254.02" y="-1.60" angle="90.00" type="human" speed="13.68" pos="254.02" lane="e0_0" slope="0.00"/>
        <vehicle id="background.3" x="59.86" y="-1.60" angle="90.00" type="human" speed="13.51" pos="59.86" lane="e0_0" slope="0.00"/>
    </timestep>
    <timestep time="44.00">
        <vehicle id="background.2" x="260.67" y="-1.60" angle="90.00" type="human" speed="13.30" pos="260.67" lane="e0_0" slope="0.00"/>
        <vehicle id="background.3" x="66.64" y="-1.60" angle="90.00" type="human" speed="13.56" pos="66.64" lane="e0_0" slope="0.00"/>
    </timestep>
    <timestep time="44.50">
        <vehicle id="background.2" x="267.43" y="-1.60" angle="90.00" type="human" speed="13.52" pos="267.43" lane="e0_0" slope="0.00"/>
        <vehicle id="background.3" x="73.47" y="-1.60" angle="90.00" type="human" speed="13.67" pos="73.47" lane="e0_0" slope="0.00"/>
    </timestep>
    <timestep time="45.00">
        <vehicle id="background.2" x="274.24" y="-1.60" angle="90.00" type="human" speed="13.62" pos="274.24" lane="e0_0" slope="0.00"/>
        <vehicle id="background.3" x="80.27" y="-1.60" angle="90.00" type="human" speed="13.59" pos="80.27" lane="e0_0" slope="0.00"/>
        <vehicle id="background.4" x="5.10" y="-1.60" angle="90.00" type="human" speed="13.89" pos="5.10" lane="e0_0" slope="0.00"/>
    </timestep>
    <timestep time="45.50">
        <vehicle id="background.2" x="280.95" y="-1.60" angle="90.00" type="human" speed="13.41" pos="280.95" lane="e0_0" slope="0.00"/>
        <vehicle id="background.3" x="87.10" y="-1.60" angle="90.00" type="human" speed="13.66" pos="87.10" lane="e0_0" slope="0.00"/>
        <vehicle id="background.4" x="11.92" y="-1.60" angle="90.00" type="human" speed="13.65" pos="11.92" lane="e0_0" slope="0.00"/>
    </timestep>
    <timestep time="46.00">
        <vehicle id="background.2" x="286.53" y="-1.60" angle="90.00" type="human" speed="11.16" pos="286.53" lane="e0_0" slope="0.00"/>
        <vehicle id="background.3" x="94.01" y="-1.60" angle="90.00" type="human" speed="13.82" pos="94.01" lane="e0_0" slope="0.00"/>
        <vehicle id="background.4" x="18.83" y="-1.60" angle="90.00" type="human" speed="13.82" pos="18.83" lane="e0_0" slope="0.00"/>
    </timestep>
    <timestep time="46.50">
        <vehicle id="background.2" x="291.15" y="-1.60" angle="90.00" type="human" speed="9.25" pos="291.15" lane="e0_0" slope="0.00"/>
        <vehicle id="background.3" x="100.72" y="-1.60" angle="90.00" type="human" speed="13.44" pos="100.72" lane="e0_0" slope="0.00"/>
        <vehicle id="background.4" x="25.62" y="-1.60" angle="90.00" type="human" speed="13.58" pos="25.62" lane="e0_0" slope="0.00"/>
    </timestep>
    <timestep time="47.00">
        <vehicle id="background.2" x="294.68" y="-1.60" angle="90.00" type="human" speed="7.05" pos="294.68" lane="e0_0" slope="0.00"/>
        <vehicle id="background.3" x="107.62" y="-1.60" angle="90.00" type="human" speed="13.78" pos="107.62" lane="e0_0" slope="0.00"/>
        <vehicle id="background.4" x="32.42" y="-1.60" angle="90.00" type="human" speed="13.59" pos="32.42" lane="e0_0" slope="0.00"/>
    </timestep>
    <timestep time="47.50">
        <vehicle id="background.2" x="297.22" y="-1.60" angle="90.00" type="human" speed="5.08" pos="297.22" lane="e0_0" slope="0.00"/>
        <vehicle id="background.3" x="114.39" y="-1.60" angle="90.00" type="human" speed="13.55" pos="114.39" lane="e0_0" slope="0.00"/>
        <vehicle id="background.4" x="39.21" y="-1.60" angle="90.00" type="human" speed="13.59" pos="39.21" lane="e0_0" slope="0.00"/>
    </timestep>
    <timestep time="48.00">
        <vehicle id="background.2" x="298.63" y="-1.60" angle="90.00" type="human" speed="2.83" pos="298.63" lane="e0_0" slope="0.00"/>
        <vehicle id="background.3" x="121.10" y="-1.60" angle="90.00" type="human" speed="13.41" pos="121.10" lane="e0_0" slope="0.00"/>
        <vehicle id="background.4" x="45.94" y="-1.60" angle="90.00" type="human" speed="13.46" pos="45.94" lane="e0_0" slope="0.00"/>
    </timestep>
    <timestep time="48.50">
        <vehicle id="background.2" x="298.95" y="-1.60" angle="90.00" type="human" speed="0.65" pos="298.95" lane="e0_0" slope="0.00"/>
        <vehicle id="background.3" x="127.92" y="-1.60" angle="90.00" type="human" speed="13.65" pos="127.92" lane="e0_0" slope="0.00"/>
        <vehicle id="background.4" x="52.81" y="-1.60" angle="90.00" type="human" speed="13.73" pos="52.81" lane="e0_0" slope="0.00"/>
    </timestep>
    <timestep time="49.00">
        <vehicle id="background.2" x="299.00" y="-1.60" angle="90.00" type="human" speed="0.09" pos="299.00" lane="e0_0" slope="0.00"/>
        <vehicle id="background.3" x="134.85" y="-1.60" angle="90.00" type="human" speed="13.86" pos="134.85" lane="e0_0" slope="0.00"/>
        <vehicle id="background.4" x="59.66" y="-1.60" angle="90.00" type="human" speed="13.71" pos="59.66" lane="e0_0" slope="0.00"/>
    </timestep>
    <timestep time="49.50">
        <vehicle id="background.2" x="299.00" y="-1.60" angle="90.00" type="human" speed="0.00" pos="299.00" lane="e0_0" slope="0.00"/>