<?xml version="1.0" encoding="UTF-8"?>

<!-- generated on 2026-05-15 22:32:01 by Eclipse SUMO sumo Version 1.24.0
<sumoConfiguration xmlns:xsi="http://www.w3.org/2001/XMLSchema-instance" xsi:noNamespaceSchemaLocation="http://sumo.dlr.de/xsd/sumoConfiguration.xsd">

    <input>
        <net-file value="scenarios/simple_arterial/simple_arterial.net.xml"/>
        <route-files value="scenarios/simple_arterial/simple_arterial.rou.xml"/>
        <additional-files value="scenarios/simple_arterial/simple_arterial.tls.xml"/>
    </input>

    <output>
        <fcd-output value="runs/fcd_random/episode_00007_seed_49.fcd.xml"/>
    </output>

    <time>
        <begin value="0"/>
        <end value="900"/>
        <step-length value="0.5"/>
    </time>

    <report>
        <no-warnings value="true"/>
    </report>

    <traci_server>
        <remote-port value="21507"/>
    </traci_server>

    <random_number>
        <seed value="49"/>
    </random_number>

</sumoConfiguration>
-->

<fcd-export xmlns:xsi="http://www.w3.org/2001/XMLSchema-instance" xsi:noNamespaceSchemaLocation="http://sumo.dlr.de/xsd/fcd_file.xsd">
    <timestep time="0.00"/>
    <timestep time="0.50"/>
    <timestep time="1.00"/>
    <timestep time="1.50"/>
    <timestep time="2.00"/>
    <timestep time="2.50"/>
    <timestep time="3.00"/>
    <timestep time="3.50"/>
    <timestep time="4.00"/>
    <timestep time="4.50"/>
    <timestep time="5.00"/>
    <timestep time="5.50"/>
    <timestep time="6.00"/>
    <timestep time="6.50"/>
    <timestep time="7.00"/>
    <timestep time="7.50"/>
    <timestep time="8.00"/>
    <timestep time="8.50"/>
    <timestep time="9.00"/>
    <timestep time="9.50"/>
    <timestep time="10.00"/>
    <timestep time="10.50"/>
    <timestep time="11.00"/>
    <timestep time="11.50"/>
    <timestep time="12.00"/>
    <timestep time="12.50">
        <vehicle id="background.0" x="5.10" y="-1.60" angle="90.00" type="human" speed="11.26" pos="5.10" lane="e0_0" slope="0.00"/>
    </timestep>
    <timestep time="13.00">
        <vehicle id="background.0" x="10.61" y="-1.60" angle="90.00" type="human" speed="11.01" pos="10.61" lane="e0_0" slope="0.00"/>
    </timestep>
    <timestep time="13.50">
        <vehicle id="background.0" x="16.20" y="-1.60" angle="90.00" type="human" speed="11.19" pos="16.20" lane="e0_0" slope="0.00"/>
    </timestep>
    <timestep time="14.00">
        <vehicle id="background.0" x="21.78" y="-1.60" angle="90.00" type="human" speed="11.15" pos="21.78" lane="e0_0" slope="0.00"/>
    </timestep>
    <timestep time="14.50">
        <vehicle id="background.0" x="27.39" y="-1.60" angle="90.00" type="human" speed="11.22" pos="27.39" lane="e0_0" slope="0.00"/>
    </timestep>
    <timestep time="15.00">
        <vehicle id="background.0" x="32.95" y="-1.60" angle="90.00" type="human" speed="11.13" pos="32.95" lane="e0_0" slope="0.00"/>
    </timestep>
    <timestep time="15.50">
        <vehicle id="background.0" x="38.43" y="-1.60" angle="90.00" type="human" speed="10.95" pos="38.43" lane="e0_0" slope="0.00"/>
    </timestep>
    <timestep time="16.00">
        <vehicle id="background.0" x="43.96" y="-1.60" angle="90.00" type="human" speed="11.06" pos="43.96" lane="e0_0" slope="0.00"/>
    </timestep>
    <timestep time="16.50">
        <vehicle id="background.0" x="49.58" y="-1.60" angle="90.00" type="human" speed="11.25" pos="49.58" lane="e0_0" slope="0.00"/>
    </timestep>
    <timestep time="17.00">
        <vehicle id="background.0" x="55.12" y="-1.60" angle="90.00" type="human" speed="11.07" pos="55.12" lane="e0_0" slope="0.00"/>
    </timestep>
    <timestep time="17.50">
        <vehicle id="background.0" x="60.71" y="-1.60" angle="90.00" type="human" speed="11.18" pos="60.71" lane="e0_0" slope="0.00"/>
    </timestep>
    <timestep time="18.00">
        <vehicle id="background.0" x="66.09" y="-1.60" angle="90.00" type="human" speed="10.76" pos="66.09" lane="e0_0" slope="0.00"/>
    </timestep>
    <timestep time="18.50">
        <vehicle id="background.0" x="71.48" y="-1.60" angle="90.00" type="human" speed="10.78" pos="71.48" lane="e0_0" slope="0.00"/>
    </timestep>
    <timestep time="19.00">
        <vehicle id="background.0" x="77.01" y="-1.60" angle="90.00" type="human" speed="11.06" pos="77.01" lane="e0_0" slope="0.00"/>
    </timestep>
    <timestep time="19.50">
        <vehicle id="background.0" x="82.44" y="-1.60" angle="90.00" type="human" speed="10.86" pos="82.44" lane="e0_0" slope="0.00"/>
    </timestep>
    <timestep time="20.00">
        <vehicle id="background.0" x="87.88" y="-1.60" angle="90.00" type="human" speed="10.87" pos="87.88" lane="e0_0" slope="0.00"/>
    </timestep>
    <timestep time="20.50">
        <vehicle id="background.0" x="93.44" y="-1.60" angle="90.00" type="human" speed="11.14" pos="93.44" lane="e0_0" slope="0.00"/>
    </timestep>
    <timestep time="21.00">
        <vehicle id="background.0" x="98.88" y="-1.60" angle="90.00" type="human" speed="10.88" pos="98.88" lane="e0_0" slope="0.00"/>
    </timestep>
    <timestep time="21.50">
        <vehicle id="background.0" x="104.43" y="-1.60" angle="90.00" type="human" speed="11.10" pos="104.43" lane="e0_0" slope="0.00"/>
    </timestep>
    <timestep time="22.00">
        <vehicle id="background.0" x="109.98" y="-1.60" angle="90.00" type="human" speed="11.10" pos="109.98" lane="e0_0" slope="0.00"/>
    </timestep>
    <timestep time="22.50">
        <vehicle id="background.0" x="115.50" y="-1.60" angle="90.00" type="human" speed="11.04" pos="115.50" lane="e0_0" slope="0.00"/>
    </timestep>
    <timestep time="23.00">
        <vehicle id="background.0" x="121.05" y="-1.60" angle="90.00" type="human" speed="11.09" pos="121.05" lane="e0_0" slope="0.00"/>
    </timestep>
    <timestep time="23.50">
        <vehicle id="background.0" x="126.64" y="-1.60" angle="90.00" type="human" speed="11.19" pos="126.64" lane="e0_0" slope="0.00"/>
    </timestep>
    <timestep time="24.00">
        <vehicle id="background.0" x="132.18" y="-1.60" angle="90.00" type="human" speed="11.08" pos="132.18" lane="e0_0" slope="0.00"/>
    </timestep>
    <timestep time="24.50">
        <vehicle id="background.0" x="137.67" y="-1.60" angle="90.00" type="human" speed="10.96" pos="137.67" lane="e0_0" slope="0.00"/>
    </timestep>
    <timestep time="25.00">
        <vehicle id="background.0" x="143.26" y="-1.60" angle="90.00" type="human" speed="11.19" pos="143.26" lane="e0_0" slope="0.00"/>
    </timestep>
    <timestep time="25.50">
        <vehicle id="background.0" x="148.64" y="-1.60" angle="90.00" type="human" speed="10.77" pos="148.64" lane="e0_0" slope="0.00"/>
    </timestep>
    <timestep time="26.00">
        <vehicle id="background.0" x="154.03" y="-1.60" angle="90.00" type="human" speed="10.77" pos="154.03" lane="e0_0" slope="0.00"/>
    </timestep>
    <timestep time="26.50">
        <vehicle id="background.0" x="159.64" y="-1.60" angle="90.00" type="human" speed="11.21" pos="159.64" lane="e0_0" slope="0.00"/>
    </timestep>
    <timestep time="27.00">
        <vehicle id="background.0" x="165.04" y="-1.60" angle="90.00" type="human" speed="10.80" pos="165.04" lane="e0_0" slope="0.00"/>
    </timestep>
    <timestep time="27.50">
        <vehicle id="background.0" x="170.60" y="-1.60" angle="90.00" type="human" speed="11.11" pos="170.60" lane="e0_0" slope="0.00"/>
    </timestep>
    <timestep time="28.00">
        <vehicle id="background.0" x="176.09" y="-1.60" angle="90.00" type="human" speed="10.98" pos="176.09" lane="e0_0" slope="0.00"/>
    </timestep>
    <timestep time="28.50">
        <vehicle id="background.0" x="181.66" y="-1.60" angle="90.00" type="human" speed="11.14" pos="181.66" lane="e0_0" slope="0.00"/>
    </timestep>
    <timestep time="29.00">
        <vehicle id="background.0" x="187.21" y="-1.60" angle="90.00" type="human" speed="11.10" pos="187.21" lane="e0_0" slope="0.00"/>
    </timestep>
    <timestep time="29.50">
        <vehicle id="background.0" x="192.71" y="-1.60" angle="90.00" type="human" speed="11.00" pos="192.71" lane="e0_0" slope="0.00"/>
    </timestep>
    <timestep time="30.00">
        <vehicle id="background.0" x="198.11" y="-1.60" angle="90.00" type="human" speed="10.82" pos="198.11" lane="e0_0" slope="0.00"/>
    </timestep>
    <timestep time="30.50">
        <vehicle id="background.0" x="203.73" y="-1.60" angle="90.00" type="human" speed="11.24" pos="203.73" lane="e0_0" slope="0.00"/>
    </timestep>
    <timestep time="31.00">
        <vehicle id="background.0" x="209.19" y="-1.60" angle="90.00" type="human" speed="10.92" pos="209.19" lane="e0_0" slope="0.00"/>
    </timestep>
    <timestep time="31.50">
        <vehicle id="background.0" x="214.76" y="-1.60" angle="90.00" type="human" speed="11.13" pos="214.76" lane="e0_0" slope="0.00"/>
    </timestep>
    <timestep time="32.00">
        <vehicle id="background.0" x="220.29" y="-1.60" angle="90.00" type="human" speed="11.06" pos="220.29" lane="e0_0" slope="0.00"/>
    </timestep>
    <timestep time="32.50">
        <vehicle id="background.0" x="225.75" y="-1.60" angle="90.00" type="human" speed="10.92" pos="225.75" lane="e0_0" slope="0.00"/>
    </timestep>
    <timestep time="33.00">
        <vehicle id="background.0" x="231.25" y="-1.60" angle="90.00" type="human" speed="11.01" pos="231.25" lane="e0_0" slope="0.00"/>
        <vehicle id="ego" x="5.10" y="-1.60" angle="90.00" type="ego_type" speed="7.71" pos="5.10" lane="e0_0" slope="0.00"/>
    </timestep>
    <timestep time="33.50">
        <vehicle id="background.0" x="236.69" y="-1.60" angle="90.00" type="human" speed="10.86" pos="236.69" lane="e0_0" slope="0.00"/>
        <vehicle id="ego" x="8.71" y="-1.60" angle="90.00" type="ego_type" speed="7.21" pos="8.71" lane="e0_0" slope="0.00"/>
    </timestep>
    <timestep time="34.00">
        <vehicle id="background.0" x="242.22" y="-1.60" angle="90.00" type="human" speed="11.08" pos="242.22" lane="e0_0" slope="0.00"/>
        <vehicle id="ego" x="11.56" y="-1.60" angle="90.00" type="ego_type" speed="5.71" pos="11.56" lane="e0_0" slope="0.00"/>
    </timestep>
    <timestep time="34.50">
        <vehicle id="background.0" x="247.83" y="-1.60" angle="90.00" type="human" speed="11.20" pos="247.83" lane="e0_0" slope="0.00"/>
        <vehicle id="ego" x="14.92" y="-1.60" angle="90.00" type="ego_type" speed="6.71" pos="14.92" lane="e0_0" slope="0.00"/>
    </timestep>
    <timestep time="35.00">
        <vehicle id="background.0" x="253.41" y="-1.60" angle="90.00" type="human" speed="11.18" pos="253.41" lane="e0_0" slope="0.00"/>
        <vehicle id="ego" x="18.77" y="-1.60" angle="90.00" type="ego_type" speed="7.71" pos="18.77" lane="e0_0" slope="0.00"/>
    </timestep>
    <timestep time="35.50">
        <vehicle id="background.0" x="259.04" y="-1.60" angle="90.00" type="human" speed="11.25" pos="259.04" lane="e0_0" slope="0.00"/>
        <vehicle id="ego" x="22.75" y="-1.60" angle="90.00" type="ego_type" speed="7.96" pos="22.75" lane="e0_0" slope="0.00"/>
    </timestep>
    <timestep time="36.00">
        <vehicle id="background.0" x="264.47" y="-1.60" angle="90.00" type="human" speed="10.86" pos="264.47" lane="e0_0" slope="0.00"/>
        <vehicle id="ego" x="26.86" y="-1.60" angle="90.00" type="ego_type" speed="8.21" pos="26.86" lane="e0_0" slope="0.00"/>
    </timestep>
    <timestep time="36.50">
        <vehicle id="background.0" x="270.03" y="-1.60" angle="90.00" type="human" speed="11.12" pos="270.03" lane="e0_0" slope="0.00"/>
        <vehicle id="ego" x="31.34" y="-1.60" angle="90.00" type="ego_type" speed="8.96" pos="31.34" lane="e0_0" slope="0.00"/>
    </timestep>
    <timestep time="37.00">
        <vehicle id="background.0" x="275.44" y="-1.60" angle="90.00" type="human" speed="10.83" pos="275.44" lane="e0_0" slope="0.00"/>
        <vehicle id="ego" x="35.70" y="-1.60" angle="90.00" type="ego_type" speed="8.71" pos="35.70" lane="e0_0" slope="0.00"/>
    </timestep>
    <timestep time="37.50">
        <vehicle id="background.0" x="280.94" y="-1.60" angle="90.00" type="human" speed="10.99" pos="280.94" lane="e0_0" slope="0.00"/>
        <vehicle id="background.1" x="5.10" y="-1.60" angle="90.00" type="human" speed="12.40" pos="5.10" lane="e0_0" slope="0.00"/>
        <vehicle id="ego" x="39.55" y="-1.60" angle="90.00" type="ego_type" speed="7.71" pos="39.55" lane="e0_0" slope="0.00"/>
    </timestep>
    <timestep time="38.00">
        <vehicle id="background.0" x="286.40" y="-1.60" angle="90.00" type="human" speed="10.91" pos="286.40" lane="e0_0" slope="0.00"/>
        <vehicle id="background.1" x="11.28" y="-1.60" angle="90.00" type="human" speed="12.37" pos="11.28" lane="e0_0" slope="0.00"/>
        <vehicle id="ego" x="43.28" y="-1.60" angle="90.00" type="ego_type" speed="7.46" pos="43.28" lane="e0_0" slope="0.00"/>
    </timestep>
    <timestep time="38.50">
        <vehicle id="background.0" x="291.85" y="-1.60" angle="90.00" type="human" speed="10.90" pos="291.85" lane="e0_0" slope="0.00"/>
        <vehicle id="background.1" x="16.98" y="-1.60" angle="90.00" type="human" speed="11.39" pos="16.98" lane="e0_0" slope="0.00"/>
        <vehicle id="ego" x="47.39" y="-1.60" angle="90.00" type="ego_type" speed="8.21" pos="47.39" lane="e0_0" slope="0.00"/>
    </timestep>
    <timestep time="39.00">
        <vehicle id="background.0" x="297.43" y="-1.60" angle="90.00" type="human" speed="11.16" pos="297.43" lane="e0_0" slope="0.00"/>
        <vehicle id="background.1" x="22.89" y="-1.60" angle="90.00" type="human" speed="11.81" pos="22.89" lane="e0_0" slope="0.00"/>
        <vehicle id="ego" x="51.25" y="-1.60" angle="90.00" type="ego_type" speed="7.71" pos="51.25" lane="e0_0" slope="0.00"/>
    </timestep>
    <timestep time="39.50">
        <vehicle id="background.0" x="302.73" y="-1.60" angle="90.00" type="human" speed="10.79" pos="2.73" lane="e1_0" slope="0.00"/>
        <vehicle id="background.1" x="28.33" y="-1.60" angle="90.00" type="human" speed="10.88" pos="28.33" lane="e0_0" slope="0.00"/>
        <vehicle id="ego" x="55.10" y="-1.60" angle="90.00" type="ego_type" speed="7.71" pos="55.10" lane="e0_0" slope="0.00"/>
    </timestep>
    <timestep time="40.00">
        <vehicle id="background.0" x="308.19" y="-1.60" angle="90.00" type="human" speed="10.92" pos="8.19" lane="e1_0" slope="0.00"/>
        <vehicle id="background.1" x="33.52" y="-1.60" angle="90.00" type="human" speed="10.39" pos="33.52" lane="e0_0" slope="0.00"/>
        <vehicle id="ego" x="58.33" y="-1.60" angle="90.00" type="ego_type" speed="6.46" pos="58.33" lane="e0_0" slope="0.00"/>
    </timestep>
    <timestep time="40.50">
        <vehicle id="background.0" x="313.73" y="-1.60" angle="90.00" type="human" speed="11.10" pos="13.73" lane="e1_0" slope="0.00"/>
        <vehicle id="background.1" x="38.17" y="-1.60" angle="90.00" type="human" speed="9.30" pos="38.17" lane="e0_0" slope="0.00"/>
        <vehicle id="ego" x="61.44" y="-1.60" angle="90.00" type="ego_type" speed="6.21" pos="61.44" lane="e0_0" slope="0.00"/>
    </timestep>
    <timestep time="41.00">
        <vehicle id="background.0" x="319.35" y="-1.60" angle="90.00" type="human" speed="11.24" pos="19.35" lane="e1_0" slope="0.00"/>
        <vehicle id="background.1" x="42.58" y="-1.60" angle="90.00" type="human" speed="8.81" pos="42.58" lane="e0_0" slope="0.00"/>
        <vehicle id="ego" x="64.29" y="-1.60" angle="90.00" type="ego_type" speed="5.71" pos="64.29" lane="e0_0" slope="0.00"/>
    </timestep>
    <timestep time="41.50">
        <vehicle id="background.0" x="324.86" y="-1.60" angle="90.00" type="human" speed="11.00" pos="24.86" lane="e1_0" slope="0.00"/>
        <vehicle id="background.1" x="46.74" y="-1.60" angle="90.00" type="human" speed="8.33" pos="46.74" lane="e0_0" slope="0.00"/>
        <vehicle id="ego" x="67.40" y="-1.60" angle="90.00" type="ego_type" speed="6.21" pos="67.40" lane="e0_0" slope="0.00"/>
    </timestep>
    <timestep time="42.00">
        <vehicle id="background.0" x="330.40" y="-1.60" angle="90.00" type="human" speed="11.09" pos="30.40" lane="e1_0" slope="0.00"/>
        <vehicle id="background.1" x="50.76" y="-1.60" angle="90.00" type="human" speed="8.04" pos="50.76" lane="e0_0" slope="0.00"/>
        <vehicle id="ego" x="69.88" y="-1.60" angle="90.00" type="ego_type" speed="4.96" pos="69.88" lane="e0_0" slope="0.00"/>
    </timestep>
    <timestep time="42.50">
        <vehicle id="background.0" x="335.79" y="-1.60" angle="90.00" type="human" speed="10.79" pos="35.79" lane="e1_0" slope="0.00"/>
        <vehicle id="background.1" x="54.22" y="-1.60" angle="90.00" type="human" speed="6.92" pos="54.22" lane="e0_0" slope="0.00"/>
        <vehicle id="ego" x="72.24" y="-1.60" angle="90.00" type="ego_type" speed="4.71" pos="72.24" lane="e0_0" slope="0.00"/>
    </timestep>
    <timestep time="43.00">
        <vehicle id="background.0" x="341.26" y="-1.60" angle="90.00" type="human" speed="10.94" pos="41.26" lane="e1_0" slope="0.00"/>
        <vehicle id="background.1" x="57.45" y="-1.60" angle="90.00" type="human" speed="6.46" pos="57.45" lane="e0_0" slope="0.00"/>
        <vehicle id="ego" x="73.84" y="-1.60" angle="90.00" type="ego_type" speed="3.21" pos="73.84" lane="e0_0" slope="0.00"/>
    </timestep>
    <timestep time="43.50">
        <vehicle id="background.0" x="346.75" y="-1.60" angle="90.00" type="human" speed="10.99" pos="46.75" lane="e1_0" slope="0.00"/>
        <vehicle id="background.1" x="60.21" y="-1.60" angle="90.00" type="human" speed="5.53" pos="60.21" lane="e0_0" slope="0.00"/>
        <vehicle id="ego" x="75.95" y="-1.60" angle="90.00" type="ego_type" speed="4.21" pos="75.95" lane="e0_0" slope="0.00"/>
    </timestep>
    <timestep time="44.00">
        <vehicle id="background.1" x="62.92" y="-1.60" angle="90.00" type="human" speed="5.42" pos="62.92" lane="e0_0" slope="0.00"/>
        <vehicle id="ego" x="77.81" y="-1.60" angle="90.00" type="ego_type" speed="3.71" pos="77.81" lane="e0_0" slope="0.00"/>
    </timestep>
    <timestep time="44.50">
        <vehicle id="background.1" x="65.40" y="-1.60" angle="90.00" type="human" speed="4.95" pos="65.40" lane="e0_0" slope="0.00"/>
        <vehicle id="ego" x="79.54" y="-1.60" angle="90.00" type="ego_type" speed="3.46" pos="79.54" lane="e0_0" slope="0.00"/>
    </timestep>
    <timestep time="45.00">
        <vehicle id="background.1" x="67.68" y="-1.60" angle="90.00" type="human" speed="4.58" pos="67.68" lane="e0_0" slope="0.00"/>
        <vehicle id="ego" x="80.64" y="-1.60" angle="90.00" type="ego_type" speed="2.21" pos="80.64" lane="e0_0" slope="0.00"/>
    </timestep>
    <timestep time="45.50">
        <vehicle id="background.1" x="69.67" y="-1.60" angle="90.00" type="human" speed="3.97" pos="69.67" lane="e0_0" slope="0.00"/>
        <vehicle id="background.2" x="5.10" y="-1.60" angle="90.00" type="human" speed="13.89" pos="5.10" lane="e0_0" slope="0.00"/>
        <vehicle id="ego" x="81.25" y="-1.60" angle="90.00" type="ego_type" speed="1.21" pos="81.25" lane="e0_0" slope="0.00"/>
    </timestep>
    <timestep time="46.00">
        <vehicle id="background.1" x="71.02" y="-1.60" angle="90.00" type="human" speed="2.71" pos="71.02" lane="e0_0" slope="0.00"/>
        <vehicle id="background.2" x="11.99" y="-1.60" angle="90.00" type="human" speed="13.78" pos="11.99" lane="e0_0" slope="0.00"/>
        <vehicle id="ego" x="81.85" y="-1.60" angle="90.00" type="ego_type" speed="1.21" pos="81.85" lane="e0_0" slope="0.00"/>
    </timestep>
    <timestep time="46.50">
        <vehicle id="background.1" x="72.21" y="-1.60" angle="90.00" type="human" speed="2.37" pos="72.21" lane="e0_0" slope="0.00"/>
        <vehicle id="background.2" x="18.86" y="-1.60" angle="90.00" type="human" speed="13.74" pos="18.86" lane="e0_0" slope="0.00"/>
        <vehicle id="ego" x="82.96" y="-1.60" angle="90.00" type="ego_type" speed="2.21" pos="82.96" lane="e0_0" slope="0.00"/>
    </timestep>
    <timestep time="47.00">
        <vehicle id="background.1" x="73.51" y="-1.60" angle="90.00" type="human" speed="2.60" pos="73.51" lane="e0_0" slope="0.00"/>
        <vehicle id="background.2" x="25.74" y="-1.60" angle="90.00" type="human" speed="13.75" pos="25.74" lane="e0_0" slope="0.00"/>
        <vehicle id="ego" x="84.19" y="-1.60" angle="90.00" type="ego_type" speed="2.46" pos="84.19" lane="e0_0" slope="0.00"/>
    </timestep>
    <timestep time="47.50">
        <vehicle id="background.1" x="74.75" y="-1.60" angle="90.00" type="human" speed="2.49" pos="74.75" lane="e0_0" slope="0.00"/>
        <vehicle id="background.2" x="32.45" y="-1.60" angle="90.00" type="human" speed="13.43" pos="32.45" lane="e0_0" slope="0.00"/>
        <vehicle id="ego" x="84.80" y="-1.60" angle="90.00" type="ego_type" speed="1.21" pos="84.80" lane="e0_0" slope="0.00"/>
    </timestep>
    <timestep time="48.00">
        <vehicle id="background.1" x="75.64" y="-1.60" angle="90.00" type="human" speed="1.78" pos="75.64" lane="e0_0" slope="0.00"/>
        <vehicle id="background.2" x="38.44" y="-1.60" angle="90.00" type="human" speed="11.97" pos="38.44" lane="e0_0" slope="0.00"/>
        <vehicle id="ego" x="84.90" y="-1.60" angle="90.00" type="ego_type" speed="0.21" pos="84.90" lane="e0_0" slope="0.00"/>
    </timestep>
    <timestep time="48.50">
        <vehicle id="background.1" x="76.37" y="-1.60" angle="90.00" type="human" speed="1.46" pos="76.37" lane="e0_0" slope="0.00"/>
        <vehicle id="background.2" x="44.03" y="-1.60" angle="90.00" type="human" speed="11.18" pos="44.03" lane="e0_0" slope="0.00"/>
        <vehicle id="ego" x="85.26" y="-1.60" angle="90.00" type="ego_type" speed="0.71" pos="85.26" lane="e0_0" slope="0.00"/>
    </timestep>
    <timestep time="49.00">
        <vehicle id="background.1" x="76.95" y="-1.60" angle="90.00" type="human" speed="1.16" pos="76.95" lane="e0_0" slope="0.00"/>
        <vehicle id="background.2" x="49.02" y="-1.60" angle="90.00" type="human" speed="9.97" pos="49.02" lane="e0_0" slope="0.00"/>
        <vehicle id="background.3" x="5.10" y="-1.60" angle="90.00" type="human" speed="13.89" pos="5.10" lane="e0_0" slope="0.00"/>
        <vehicle id="ego" x="86.11" y="-1.60" angle="90.00" type="ego_type" speed="1.71" pos="86.11" lane="e0_0" slope="0.00"/>
    </timestep>
    <timestep time="49.50">
        <vehicle id="background.1" x="77.61" y="-1.60" angle="90.00" type="human" speed="1.32" pos="77.61" lane="e0_0" slope="0.00"/>
        <vehicle id="background.2" x="53.52" y="-1.60" angle="90.00" type="human" speed="9.01" pos="53.52" lane="e0_0" slope="0.00"/>
        <vehicle id="background.3" x="11.94" y="-1.60" angle="90.00" type="human" speed="13.68" pos="11.94" lane="e0_0" slope="0.00"/>
        <vehicle id="ego" x="86.22" y="-1.60" angle="90.00" type="ego_type" speed="0.21" pos="86.22" lane="e0_0" slope="0.00"/>
    </timestep>
    <timestep time="50.00">
        <vehicle id="background.1" x="78.16" y="-1.60" angle="90.00" type="human" speed="1.10" pos="78.16" lane="e0_0" slope="0.00"/>
        <vehicle id="background.2" x="57.47" y="-1.60" angle="90.00" type="human" speed="7.90" pos="57.47" lane="e0_0" slope="0.00"/>
        <vehicle id="background.3" x="18.88" y="-1.60" angle="90.00" type="human" speed="13.88" pos="18.88" lane="e0_0" slope="0.00"/>
        <vehicle id="ego" x="86.58" y="-1.60" angle="90.00" type="ego_type" speed="0.71" pos="86.58" lane="e0_0" slope="0.00"/>
    </timestep>
    <timestep time="50.50">
        <vehicle id="background.1" x="78.56" y="-1.60" angle="90.00" type="human" speed="0.80" pos="78.56" lane="e0_0" slope="0.00"/>
        <vehicle id="background.2" x="60.78" y="-1.60" angle="90.00" type="human" speed="6.63" pos="60.78" lane="e0_0" slope="0.00"/>
        <vehicle id="background.3" x="25.45" y="-1.60" angle="90.00" type="human" speed="13.15" pos="25.45" lane="e0_0" slope="0.00"/>
        <vehicle id="ego" x="86.68" y="-1.60" angle="90.00" type="ego_type" speed="0.21" pos="86.68" lane="e0_0" slope="0.00"/>
    </timestep>
    <timestep time="51.00">
        <vehicle id="background.1" x="78.83" y="-1.60" angle="90.00" type="human" speed="0.55" pos="78.83" lane="e0_0" slope="0.00"/>
        <vehicle id="background.2" x="63.59" y="-1.60" angle="90.00" type="human" speed="5.62" pos="63.59" lane="e0_0" slope="0.00"/>
        <vehicle id="background.3" x="31.34" y="-1.60" angle="90.00" type="human" speed="11.78" pos="31.34" lane="e0_0" slope="0.00"/>
        <vehicle id="ego" x="86.79" y="-1.60" angle="90.00" type="ego_type" speed="0.21" pos="86.79" lane="e0_0" slope="0.00"/>
    </timestep>
    <timestep time="51.50">
        <vehicle id="background.1" x="79.02" y="-1.60" angle="90.00" type="human" speed="0.37" pos="79.02" lane="e0_0" slope="0.00"/>
        <vehicle id="background.2" x="65.81" y="-1.60" angle="90.00" type="human" speed="4.43" pos="65.81" lane="e0_0" slope="0.00"/>
        <vehicle id="background.3" x="36.68" y="-1.60" angle="90.00" type="human" speed="10.68" pos="36.68" lane="e0_0" slope="0.00"/>
        <vehicle id="ego" x="87.39" y="-1.60" angle="90.00" type="ego_type" speed="1.21" pos="87.39" lane="e0_0" slope="0.00"/>
    </timestep>
    <timestep time="52.00">
        <vehicle id="background.1" x="79.43" y="-1.60" angle="90.00" type="human" speed="0.83" pos="79.43" lane="e0_0" slope="0.00"/>
        <vehicle id="background.2" x="67.73" y="-1.60" angle="90.00" type="human" speed="3.85" pos="67.73" lane="e0_0" slope="0.00"/>
        <vehicle id="background.3" x="41.56" y="-1.60" angle="90.00" type="human" speed="9.76" pos="41.56" lane="e0_0" slope="0.00"/>
        <vehicle id="ego" x="88.25" y="-1.60" angle="90.00" type="ego_type" speed="1.71" pos="88.25" lane="e0_0" slope="0.00"/>
    </timestep>
    <timestep time="52.50">
        <vehicle id="background.1" x="80.13" y="-1.60" angle="90.00" type="human" speed="1.40" pos="80.13" lane="e0_0" slope="0.00"/>
        <vehicle id="background.2" x="69.11" y="-1.60" angle="90.00" type="human" speed="2.74" pos="69.11" lane="e0_0" slope="0.00"/>
        <vehicle id="background.3" x="45.87" y="-1.60" angle="90.00" type="human" speed="8.60" pos="45.87" lane="e0_0" slope="0.00"/>
        <vehicle id="ego" x="89.36" y="-1.60" angle="90.00" type="ego_type" speed="2.21" pos="89.36" lane="e0_0" slope="0.00"/>
    </timestep>
    <timestep time="53.00">
        <vehicle id="background.1" x="80.93" y="-1.60" angle="90.00" type="human" speed="1.60" pos="80.93" lane="e0_0" slope="0.00"/>
        <vehicle id="background.2" x="70.35" y="-1.60" angle="90.00" type="human" speed="2.49" pos="70.35" lane="e0_0" slope="0.00"/>
        <vehicle id="background.3" x="49.66" y="-1.60" angle="90.00" type="human" speed="7.59" pos="49.66" lane="e0_0" slope="0.00"/>
        <vehicle id="background.4" x="5.10" y="-1.60" angle="90.00" type="human" speed="13.89" pos="5.10" lane="e0_0" slope="0.00"/>
        <vehicle id="ego" x="89.96" y="-1.60" angle="90.00" type="ego_type" speed="1.21" pos="89.96" lane="e0_0" slope="0.00"/>
    </timestep>
    <timestep time="53.50">
        <vehicle id="background.1" x="81.67" y="-1.60" angle="90.00" type="human" speed="1.47" pos="81.67" lane="e0_0" slope="0.00"/>
        <vehicle id="background.2" x="71.41" y="-1.60" angle="90.00" type="human" speed="2.12" pos="71.41" lane="e0_0" slope="0.00"/>
        <vehicle id="background.3" x="53.01" y="-1.60" angle="90.00" type="human" speed="6.70" pos="53.01" lane="e0_0" slope="0.00"/>
        <vehicle id="background.4" x="11.83" y="-1.60" angle="90.00" type="human" speed="13.46" pos="11.83" lane="e0_0" slope="0.00"/>
        <vehicle id="ego" x="91.07" y="-1.60" angle="90.00" type="ego_type" speed="2.21" pos="91.07" lane="e0_0" slope="0.00"/>
    </timestep>
    <timestep time="54.00">
        <vehicle id="background.1" x="82.56" y="-1.60" angle="90.00" type="human" speed="1.79" pos="82.56" lane="e0_0" slope="0.00"/>
        <vehicle id="background.2" x="72.47" y="-1.60" angle="90.00" type="human" speed="2.13" pos="72.47" lane="e0_0" slope="0.00"/>
        <vehicle id="background.3" x="56.13" y="-1.60" angle="90.00" type="human" speed="6.23" pos="56.13" lane="e0_0" slope="0.00"/>
        <vehicle id="background.4" x="18.28" y="-1.60" angle="90.00" type="human" speed="12.90" pos="18.28" lane="e0_0" slope="0.00"/>
        <vehicle id="ego" x="91.92" y="-1.60" angle="90.00" type="ego_type" speed="1.71" pos="91.92" lane="e0_0" slope="0.00"/>
    </timestep>
    <timestep time="54.50">
        <vehicle id="background.1" x="83.42" y="-1.60" angle="90.00" type="human" speed="1.71" pos="83.42" lane="e0_0" slope="0.00"/>
        <vehicle id="background.2" x="73.63" y="-1.60" angle="90.00" type="human" speed="2.32" pos="73.63" lane="e0_0" slope="0.00"/>
        <vehicle id="background.3" x="58.71" y="-1.60" angle="90.00" type="human" speed="5.17" pos="58.71" lane="e0_0" slope="0.00"/>
        <vehicle id="background.4" x="24.36" y="-1.60" angle="90.00" type="human" speed="12.17" pos="24.36" lane="e0_0" slope="0.00"/>
        <vehicle id="ego" x="92.65" y="-1.60" angle="90.00" type="ego_type" speed="1.46" pos="92.65" lane="e0_0" slope="0.00"/>
    </timestep>
    <timestep time="55.00">
        <vehicle id="background.1" x="84.17" y="-1.60" angle="90.00" type="human" speed="1.50" pos="84.17" lane="e0_0" slope="0.00"/>
        <vehicle id="background.2" x="74.62" y="-1.60" angle="90.00" type="human" speed="1.98" pos="74.62" lane="e0_0" slope="0.00"/>
        <vehicle id="background.3" x="61.15" y="-1.60" angle="90.00" type="human" speed="4.87" pos="61.15" lane="e0_0" slope="0.00"/>
        <vehicle id="background.4" x="29.90" y="-1.60" angle="90.00" type="human" speed="11.08" pos="29.90" lane="e0_0" slope="0.00"/>
        <vehicle id="ego" x="93.89" y="-1.60" angle="90.00" type="ego_type" speed="2.46" pos="93.89" lane="e0_0" slope="0.00"/>
    </timestep>
    <timestep time="55.50">