<?xml version="1.0" encoding="UTF-8"?>

<!-- generated on 2026-05-13 21:24:49 by Eclipse SUMO sumo Version 1.24.0
<sumoConfiguration xmlns:xsi="http://www.w3.org/2001/XMLSchema-instance" xsi:noNamespaceSchemaLocation="http://sumo.dlr.de/xsd/sumoConfiguration.xsd">

    <input>
        <net-file value="scenarios/simple_arterial/simple_arterial.net.xml"/>
        <route-files value="scenarios/simple_arterial/simple_arterial.rou.xml"/>
        <additional-files value="scenarios/simple_arterial/simple_arterial.tls.xml"/>
    </input>

    <output>
        <fcd-output value="runs/fcd_random/episode_00012_seed_112.fcd.xml"/>
    </output>

    <time>
        <begin value="0"/>
        <end value="900"/>
        <step-length value="0.5"/>
    </time>

    <report>
        <no-warnings value="true"/>
    </report>

    <traci_server>
        <remote-port value="30543"/>
    </traci_server>

    <random_number>
        <seed value="112"/>
    </random_number>

</sumoConfiguration>
-->

<fcd-export xmlns:xsi="http://www.w3.org/2001/XMLSchema-instance" xsi:noNamespaceSchemaLocation="http://sumo.dlr.de/xsd/fcd_file.xsd">
    <timestep time="0.00"/>
    <timestep time="0.50"/>
    <timestep time="1.00"/>
    <timestep time="1.50"/>
    <timestep time="2.00"/>
    <timestep time="2.50"/>
    <timestep time="3.00"/>
    <timestep time="3.50"/>
    <timestep time="4.00"/>
    <timestep time="4.50"/>
    <timestep time="5.00"/>
    <timestep time="5.50"/>
    <timestep time="6.00"/>
    <timestep time="6.50"/>
    <timestep time="7.00"/>
    <timestep time="7.50"/>
    <timestep time="8.00"/>
    <timestep time="8.50"/>
    <timestep time="9.00"/>
    <timestep time="9.50"/>
    <timestep time="10.00">
        <vehicle id="background.0" x="5.10" y="-1.60" angle="90.00" type="human" speed="12.67" pos="5.10" lane="e0_0" slope="0.00"/>
    </timestep>
    <timestep time="10.50">
        <vehicle id="background.0" x="11.22" y="-1.60" angle="90.00" type="human" speed="12.24" pos="11.22" lane="e0_0" slope="0.00"/>
    </timestep>
    <timestep time="11.00">
        <vehicle id="background.0" x="17.53" y="-1.60" angle="90.00" type="human" speed="12.61" pos="17.53" lane="e0_0" slope="0.00"/>
        <vehicle id="ego" x="5.10" y="-1.60" angle="90.00" type="ego_type" speed="0.00" pos="5.10" lane="e0_0" slope="0.00"/>
    </timestep>
    <timestep time="11.50">
        <vehicle id="background.0" x="23.84" y="-1.60" angle="90.00" type="human" speed="12.63" pos="23.84" lane="e0_0" slope="0.00"/>
        <vehicle id="ego" x="5.35" y="-1.60" angle="90.00" type="ego_type" speed="0.50" pos="5.35" lane="e0_0" slope="0.00"/>
    </timestep>
    <timestep time="12.00">
        <vehicle id="background.0" x="29.95" y="-1.60" angle="90.00" type="human" speed="12.22" pos="29.95" lane="e0_0" slope="0.00"/>
        <vehicle id="ego" x="5.35" y="-1.60" angle="90.00" type="ego_type" speed="0.00" pos="5.35" lane="e0_0" slope="0.00"/>
    </timestep>
    <timestep time="12.50">
        <vehicle id="background.0" x="36.18" y="-1.60" angle="90.00" type="human" speed="12.45" pos="36.18" lane="e0_0" slope="0.00"/>
        <vehicle id="ego" x="5.35" y="-1.60" angle="90.00" type="ego_type" speed="0.00" pos="5.35" lane="e0_0" slope="0.00"/>
    </timestep>
    <timestep time="13.00">
        <vehicle id="background.0" x="42.48" y="-1.60" angle="90.00" type="human" speed="12.61" pos="42.48" lane="e0_0" slope="0.00"/>
        <vehicle id="ego" x="5.35" y="-1.60" angle="90.00" type="ego_type" speed="0.00" pos="5.35" lane="e0_0" slope="0.00"/>
    </timestep>
    <timestep time="13.50">
        <vehicle id="background.0" x="48.68" y="-1.60" angle="90.00" type="human" speed="12.38" pos="48.68" lane="e0_0" slope="0.00"/>
        <vehicle id="ego" x="5.35" y="-1.60" angle="90.00" type="ego_type" speed="0.00" pos="5.35" lane="e0_0" slope="0.00"/>
    </timestep>
    <timestep time="14.00">
        <vehicle id="background.0" x="54.80" y="-1.60" angle="90.00" type="human" speed="12.25" pos="54.80" lane="e0_0" slope="0.00"/>
        <vehicle id="ego" x="5.35" y="-1.60" angle="90.00" type="ego_type" speed="0.00" pos="5.35" lane="e0_0" slope="0.00"/>
    </timestep>
    <timestep time="14.50">
        <vehicle id="background.0" x="61.03" y="-1.60" angle="90.00" type="human" speed="12.45" pos="61.03" lane="e0_0" slope="0.00"/>
        <vehicle id="ego" x="5.35" y="-1.60" angle="90.00" type="ego_type" speed="0.00" pos="5.35" lane="e0_0" slope="0.00"/>
    </timestep>
    <timestep time="15.00">
        <vehicle id="background.0" x="67.19" y="-1.60" angle="90.00" type="human" speed="12.32" pos="67.19" lane="e0_0" slope="0.00"/>
        <vehicle id="ego" x="5.35" y="-1.60" angle="90.00" type="ego_type" speed="0.00" pos="5.35" lane="e0_0" slope="0.00"/>
    </timestep>
    <timestep time="15.50">
        <vehicle id="background.0" x="73.35" y="-1.60" angle="90.00" type="human" speed="12.33" pos="73.35" lane="e0_0" slope="0.00"/>
        <vehicle id="ego" x="5.85" y="-1.60" angle="90.00" type="ego_type" speed="1.00" pos="5.85" lane="e0_0" slope="0.00"/>
    </timestep>
    <timestep time="16.00">
        <vehicle id="background.0" x="79.51" y="-1.60" angle="90.00" type="human" speed="12.32" pos="79.51" lane="e0_0" slope="0.00"/>
        <vehicle id="ego" x="6.60" y="-1.60" angle="90.00" type="ego_type" speed="1.50" pos="6.60" lane="e0_0" slope="0.00"/>
    </timestep>
    <timestep time="16.50">
        <vehicle id="background.0" x="85.65" y="-1.60" angle="90.00" type="human" speed="12.28" pos="85.65" lane="e0_0" slope="0.00"/>
        <vehicle id="ego" x="7.60" y="-1.60" angle="90.00" type="ego_type" speed="2.00" pos="7.60" lane="e0_0" slope="0.00"/>
    </timestep>
    <timestep time="17.00">
        <vehicle id="background.0" x="91.83" y="-1.60" angle="90.00" type="human" speed="12.35" pos="91.83" lane="e0_0" slope="0.00"/>
        <vehicle id="ego" x="7.85" y="-1.60" angle="90.00" type="ego_type" speed="0.50" pos="7.85" lane="e0_0" slope="0.00"/>
    </timestep>
    <timestep time="17.50">
        <vehicle id="background.0" x="97.92" y="-1.60" angle="90.00" type="human" speed="12.19" pos="97.92" lane="e0_0" slope="0.00"/>
        <vehicle id="ego" x="8.60" y="-1.60" angle="90.00" type="ego_type" speed="1.50" pos="8.60" lane="e0_0" slope="0.00"/>
    </timestep>
    <timestep time="18.00">
        <vehicle id="background.0" x="104.23" y="-1.60" angle="90.00" type="human" speed="12.62" pos="104.23" lane="e0_0" slope="0.00"/>
        <vehicle id="ego" x="9.85" y="-1.60" angle="90.00" type="ego_type" speed="2.50" pos="9.85" lane="e0_0" slope="0.00"/>
    </timestep>
    <timestep time="18.50">
        <vehicle id="background.0" x="110.37" y="-1.60" angle="90.00" type="human" speed="12.27" pos="110.37" lane="e0_0" slope="0.00"/>
        <vehicle id="ego" x="11.35" y="-1.60" angle="90.00" type="ego_type" speed="3.00" pos="11.35" lane="e0_0" slope="0.00"/>
    </timestep>
    <timestep time="19.00">
        <vehicle id="background.0" x="116.49" y="-1.60" angle="90.00" type="human" speed="12.25" pos="116.49" lane="e0_0" slope="0.00"/>
        <vehicle id="ego" x="12.10" y="-1.60" angle="90.00" type="ego_type" speed="1.50" pos="12.10" lane="e0_0" slope="0.00"/>
    </timestep>
    <timestep time="19.50">
        <vehicle id="background.0" x="122.76" y="-1.60" angle="90.00" type="human" speed="12.54" pos="122.76" lane="e0_0" slope="0.00"/>
        <vehicle id="ego" x="12.47" y="-1.60" angle="90.00" type="ego_type" speed="0.75" pos="12.47" lane="e0_0" slope="0.00"/>
    </timestep>
    <timestep time="20.00">
        <vehicle id="background.0" x="128.89" y="-1.60" angle="90.00" type="human" speed="12.25" pos="128.89" lane="e0_0" slope="0.00"/>
        <vehicle id="ego" x="12.47" y="-1.60" angle="90.00" type="ego_type" speed="0.00" pos="12.47" lane="e0_0" slope="0.00"/>
    </timestep>
    <timestep time="20.50">
        <vehicle id="background.0" x="135.09" y="-1.60" angle="90.00" type="human" speed="12.40" pos="135.09" lane="e0_0" slope="0.00"/>
        <vehicle id="background.1" x="5.10" y="-1.60" angle="90.00" type="human" speed="0.37" pos="5.10" lane="e0_0" slope="0.00"/>
        <vehicle id="ego" x="12.97" y="-1.60" angle="90.00" type="ego_type" speed="1.00" pos="12.97" lane="e0_0" slope="0.00"/>
    </timestep>
    <timestep time="21.00">
        <vehicle id="background.0" x="141.30" y="-1.60" angle="90.00" type="human" speed="12.41" pos="141.30" lane="e0_0" slope="0.00"/>
        <vehicle id="background.1" x="5.28" y="-1.60" angle="90.00" type="human" speed="0.36" pos="5.28" lane="e0_0" slope="0.00"/>
        <vehicle id="ego" x="13.72" y="-1.60" angle="90.00" type="ego_type" speed="1.50" pos="13.72" lane="e0_0" slope="0.00"/>
    </timestep>
    <timestep time="21.50">
        <vehicle id="background.0" x="147.44" y="-1.60" angle="90.00" type="human" speed="12.28" pos="147.44" lane="e0_0" slope="0.00"/>
        <vehicle id="background.1" x="5.66" y="-1.60" angle="90.00" type="human" speed="0.76" pos="5.66" lane="e0_0" slope="0.00"/>
        <vehicle id="ego" x="14.10" y="-1.60" angle="90.00" type="ego_type" speed="0.75" pos="14.10" lane="e0_0" slope="0.00"/>
    </timestep>
    <timestep time="22.00">
        <vehicle id="background.0" x="153.60" y="-1.60" angle="90.00" type="human" speed="12.34" pos="153.60" lane="e0_0" slope="0.00"/>
        <vehicle id="background.1" x="6.11" y="-1.60" angle="90.00" type="human" speed="0.90" pos="6.11" lane="e0_0" slope="0.00"/>
        <vehicle id="ego" x="14.47" y="-1.60" angle="90.00" type="ego_type" speed="0.75" pos="14.47" lane="e0_0" slope="0.00"/>
    </timestep>
    <timestep time="22.50">
        <vehicle id="background.0" x="159.81" y="-1.60" angle="90.00" type="human" speed="12.42" pos="159.81" lane="e0_0" slope="0.00"/>
        <vehicle id="background.1" x="6.52" y="-1.60" angle="90.00" type="human" speed="0.82" pos="6.52" lane="e0_0" slope="0.00"/>
        <vehicle id="ego" x="14.47" y="-1.60" angle="90.00" type="ego_type" speed="0.00" pos="14.47" lane="e0_0" slope="0.00"/>
    </timestep>
    <timestep time="23.00">
        <vehicle id="background.0" x="166.03" y="-1.60" angle="90.00" type="human" speed="12.44" pos="166.03" lane="e0_0" slope="0.00"/>
        <vehicle id="background.1" x="6.72" y="-1.60" angle="90.00" type="human" speed="0.40" pos="6.72" lane="e0_0" slope="0.00"/>
        <vehicle id="ego" x="14.47" y="-1.60" angle="90.00" type="ego_type" speed="0.00" pos="14.47" lane="e0_0" slope="0.00"/>
    </timestep>
    <timestep time="23.50">
        <vehicle id="background.0" x="172.32" y="-1.60" angle="90.00" type="human" speed="12.58" pos="172.32" lane="e0_0" slope="0.00"/>
        <vehicle id="background.1" x="6.82" y="-1.60" angle="90.00" type="human" speed="0.20" pos="6.82" lane="e0_0" slope="0.00"/>
        <vehicle id="ego" x="14.97" y="-1.60" angle="90.00" type="ego_type" speed="1.00" pos="14.97" lane="e0_0" slope="0.00"/>
    </timestep>
    <timestep time="24.00">
        <vehicle id="background.0" x="178.60" y="-1.60" angle="90.00" type="human" speed="12.56" pos="178.60" lane="e0_0" slope="0.00"/>
        <vehicle id="background.1" x="7.10" y="-1.60" angle="90.00" type="human" speed="0.56" pos="7.10" lane="e0_0" slope="0.00"/>
        <vehicle id="ego" x="15.10" y="-1.60" angle="90.00" type="ego_type" speed="0.25" pos="15.10" lane="e0_0" slope="0.00"/>
    </timestep>
    <timestep time="24.50">
        <vehicle id="background.0" x="184.92" y="-1.60" angle="90.00" type="human" speed="12.64" pos="184.92" lane="e0_0" slope="0.00"/>
        <vehicle id="background.1" x="7.35" y="-1.60" angle="90.00" type="human" speed="0.50" pos="7.35" lane="e0_0" slope="0.00"/>
        <vehicle id="ego" x="15.10" y="-1.60" angle="90.00" type="ego_type" speed="0.00" pos="15.10" lane="e0_0" slope="0.00"/>
    </timestep>
    <timestep time="25.00">
        <vehicle id="background.0" x="191.12" y="-1.60" angle="90.00" type="human" speed="12.41" pos="191.12" lane="e0_0" slope="0.00"/>
        <vehicle id="background.1" x="7.47" y="-1.60" angle="90.00" type="human" speed="0.23" pos="7.47" lane="e0_0" slope="0.00"/>
        <vehicle id="ego" x="15.60" y="-1.60" angle="90.00" type="ego_type" speed="1.00" pos="15.60" lane="e0_0" slope="0.00"/>
    </timestep>
    <timestep time="25.50">
        <vehicle id="background.0" x="197.42" y="-1.60" angle="90.00" type="human" speed="12.60" pos="197.42" lane="e0_0" slope="0.00"/>
        <vehicle id="background.1" x="7.75" y="-1.60" angle="90.00" type="human" speed="0.57" pos="7.75" lane="e0_0" slope="0.00"/>
        <vehicle id="ego" x="16.35" y="-1.60" angle="90.00" type="ego_type" speed="1.50" pos="16.35" lane="e0_0" slope="0.00"/>
    </timestep>
    <timestep time="26.00">
        <vehicle id="background.0" x="203.68" y="-1.60" angle="90.00" type="human" speed="12.51" pos="203.68" lane="e0_0" slope="0.00"/>
        <vehicle id="background.1" x="8.23" y="-1.60" angle="90.00" type="human" speed="0.95" pos="8.23" lane="e0_0" slope="0.00"/>
        <vehicle id="ego" x="17.10" y="-1.60" angle="90.00" type="ego_type" speed="1.50" pos="17.10" lane="e0_0" slope="0.00"/>
    </timestep>
    <timestep time="26.50">
        <vehicle id="background.0" x="209.87" y="-1.60" angle="90.00" type="human" speed="12.38" pos="209.87" lane="e0_0" slope="0.00"/>
        <vehicle id="background.1" x="8.90" y="-1.60" angle="90.00" type="human" speed="1.36" pos="8.90" lane="e0_0" slope="0.00"/>
        <vehicle id="ego" x="17.85" y="-1.60" angle="90.00" type="ego_type" speed="1.50" pos="17.85" lane="e0_0" slope="0.00"/>
    </timestep>
    <timestep time="27.00">
        <vehicle id="background.0" x="216.18" y="-1.60" angle="90.00" type="human" speed="12.62" pos="216.18" lane="e0_0" slope="0.00"/>
        <vehicle id="background.1" x="9.59" y="-1.60" angle="90.00" type="human" speed="1.38" pos="9.59" lane="e0_0" slope="0.00"/>
        <vehicle id="ego" x="19.10" y="-1.60" angle="90.00" type="ego_type" speed="2.50" pos="19.10" lane="e0_0" slope="0.00"/>
    </timestep>
    <timestep time="27.50">
        <vehicle id="background.0" x="222.27" y="-1.60" angle="90.00" type="human" speed="12.19" pos="222.27" lane="e0_0" slope="0.00"/>
        <vehicle id="background.1" x="10.58" y="-1.60" angle="90.00" type="human" speed="1.99" pos="10.58" lane="e0_0" slope="0.00"/>
        <vehicle id="ego" x="19.98" y="-1.60" angle="90.00" type="ego_type" speed="1.75" pos="19.98" lane="e0_0" slope="0.00"/>
    </timestep>
    <timestep time="28.00">
        <vehicle id="background.0" x="228.38" y="-1.60" angle="90.00" type="human" speed="12.22" pos="228.38" lane="e0_0" slope="0.00"/>
        <vehicle id="background.1" x="11.46" y="-1.60" angle="90.00" type="human" speed="1.75" pos="11.46" lane="e0_0" slope="0.00"/>
        <vehicle id="ego" x="20.85" y="-1.60" angle="90.00" type="ego_type" speed="1.75" pos="20.85" lane="e0_0" slope="0.00"/>
    </timestep>
    <timestep time="28.50">
        <vehicle id="background.0" x="234.64" y="-1.60" angle="90.00" type="human" speed="12.52" pos="234.64" lane="e0_0" slope="0.00"/>
        <vehicle id="background.1" x="12.37" y="-1.60" angle="90.00" type="human" speed="1.83" pos="12.37" lane="e0_0" slope="0.00"/>
        <vehicle id="ego" x="20.98" y="-1.60" angle="90.00" type="ego_type" speed="0.25" pos="20.98" lane="e0_0" slope="0.00"/>
    </timestep>
    <timestep time="29.00">
        <vehicle id="background.0" x="240.98" y="-1.60" angle="90.00" type="human" speed="12.67" pos="240.98" lane="e0_0" slope="0.00"/>
        <vehicle id="background.1" x="12.84" y="-1.60" angle="90.00" type="human" speed="0.94" pos="12.84" lane="e0_0" slope="0.00"/>
        <vehicle id="ego" x="20.98" y="-1.60" angle="90.00" type="ego_type" speed="0.00" pos="20.98" lane="e0_0" slope="0.00"/>
    </timestep>
    <timestep time="29.50">
        <vehicle id="background.0" x="247.27" y="-1.60" angle="90.00" type="human" speed="12.58" pos="247.27" lane="e0_0" slope="0.00"/>
        <vehicle id="background.1" x="13.11" y="-1.60" angle="90.00" type="human" speed="0.55" pos="13.11" lane="e0_0" slope="0.00"/>
        <vehicle id="ego" x="21.48" y="-1.60" angle="90.00" type="ego_type" speed="1.00" pos="21.48" lane="e0_0" slope="0.00"/>
    </timestep>
    <timestep time="30.00">
        <vehicle id="background.0" x="253.45" y="-1.60" angle="90.00" type="human" speed="12.37" pos="253.45" lane="e0_0" slope="0.00"/>
        <vehicle id="background.1" x="13.48" y="-1.60" angle="90.00" type="human" speed="0.73" pos="13.48" lane="e0_0" slope="0.00"/>
        <vehicle id="ego" x="22.48" y="-1.60" angle="90.00" type="ego_type" speed="2.00" pos="22.48" lane="e0_0" slope="0.00"/>
    </timestep>
    <timestep time="30.50">
        <vehicle id="background.0" x="259.63" y="-1.60" angle="90.00" type="human" speed="12.35" pos="259.63" lane="e0_0" slope="0.00"/>
        <vehicle id="background.1" x="14.12" y="-1.60" angle="90.00" type="human" speed="1.29" pos="14.12" lane="e0_0" slope="0.00"/>
        <vehicle id="ego" x="23.73" y="-1.60" angle="90.00" type="ego_type" speed="2.50" pos="23.73" lane="e0_0" slope="0.00"/>
    </timestep>
    <timestep time="31.00">
        <vehicle id="background.0" x="265.78" y="-1.60" angle="90.00" type="human" speed="12.31" pos="265.78" lane="e0_0" slope="0.00"/>
        <vehicle id="background.1" x="15.04" y="-1.60" angle="90.00" type="human" speed="1.85" pos="15.04" lane="e0_0" slope="0.00"/>
        <vehicle id="ego" x="24.98" y="-1.60" angle="90.00" type="ego_type" speed="2.50" pos="24.98" lane="e0_0" slope="0.00"/>
    </timestep>
    <timestep time="31.50">
        <vehicle id="background.0" x="271.89" y="-1.60" angle="90.00" type="human" speed="12.22" pos="271.89" lane="e0_0" slope="0.00"/>
        <vehicle id="background.1" x="16.13" y="-1.60" angle="90.00" type="human" speed="2.18" pos="16.13" lane="e0_0" slope="0.00"/>
        <vehicle id="ego" x="25.85" y="-1.60" angle="90.00" type="ego_type" speed="1.75" pos="25.85" lane="e0_0" slope="0.00"/>
    </timestep>
    <timestep time="32.00">
        <vehicle id="background.0" x="278.10" y="-1.60" angle="90.00" type="human" speed="12.41" pos="278.10" lane="e0_0" slope="0.00"/>
        <vehicle id="background.1" x="17.11" y="-1.60" angle="90.00" type="human" speed="1.95" pos="17.11" lane="e0_0" slope="0.00"/>
        <vehicle id="ego" x="26.73" y="-1.60" angle="90.00" type="ego_type" speed="1.75" pos="26.73" lane="e0_0" slope="0.00"/>
    </timestep>
    <timestep time="32.50">
        <vehicle id="background.0" x="284.32" y="-1.60" angle="90.00" type="human" speed="12.44" pos="284.32" lane="e0_0" slope="0.00"/>
        <vehicle id="background.1" x="18.05" y="-1.60" angle="90.00" type="human" speed="1.87" pos="18.05" lane="e0_0" slope="0.00"/>
        <vehicle id="ego" x="26.85" y="-1.60" angle="90.00" type="ego_type" speed="0.25" pos="26.85" lane="e0_0" slope="0.00"/>
    </timestep>
    <timestep time="33.00">
        <vehicle id="background.0" x="290.65" y="-1.60" angle="90.00" type="human" speed="12.66" pos="290.65" lane="e0_0" slope="0.00"/>
        <vehicle id="background.1" x="18.65" y="-1.60" angle="90.00" type="human" speed="1.22" pos="18.65" lane="e0_0" slope="0.00"/>
        <vehicle id="ego" x="26.85" y="-1.60" angle="90.00" type="ego_type" speed="0.00" pos="26.85" lane="e0_0" slope="0.00"/>
    </timestep>
    <timestep time="33.50">
        <vehicle id="background.0" x="296.78" y="-1.60" angle="90.00" type="human" speed="12.25" pos="296.78" lane="e0_0" slope="0.00"/>
        <vehicle id="background.1" x="18.98" y="-1.60" angle="90.00" type="human" speed="0.66" pos="18.98" lane="e0_0" slope="0.00"/>
        <vehicle id="ego" x="26.85" y="-1.60" angle="90.00" type="ego_type" speed="0.00" pos="26.85" lane="e0_0" slope="0.00"/>
    </timestep>
    <timestep time="34.00">
        <vehicle id="background.0" x="302.77" y="-1.60" angle="90.00" type="human" speed="12.19" pos="2.77" lane="e1_0" slope="0.00"/>
        <vehicle id="background.1" x="19.15" y="-1.60" angle="90.00" type="human" speed="0.34" pos="19.15" lane="e0_0" slope="0.00"/>
        <vehicle id="ego" x="26.85" y="-1.60" angle="90.00" type="ego_type" speed="0.00" pos="26.85" lane="e0_0" slope="0.00"/>
    </timestep>
    <timestep time="34.50">
        <vehicle id="background.0" x="309.07" y="-1.60" angle="90.00" type="human" speed="12.59" pos="9.07" lane="e1_0" slope="0.00"/>
        <vehicle id="background.1" x="19.24" y="-1.60" angle="90.00" type="human" speed="0.17" pos="19.24" lane="e0_0" slope="0.00"/>
        <vehicle id="ego" x="26.85" y="-1.60" angle="90.00" type="ego_type" speed="0.00" pos="26.85" lane="e0_0" slope="0.00"/>
    </timestep>
    <timestep time="35.00">
        <vehicle id="background.0" x="315.37" y="-1.60" angle="90.00" type="human" speed="12.61" pos="15.37" lane="e1_0" slope="0.00"/>
        <vehicle id="background.1" x="19.29" y="-1.60" angle="90.00" type="human" speed="0.11" pos="19.29" lane="e0_0" slope="0.00"/>
        <vehicle id="ego" x="26.85" y="-1.60" angle="90.00" type="ego_type" speed="0.00" pos="26.85" lane="e0_0" slope="0.00"/>
    </timestep>
    <timestep time="35.50">
        <vehicle id="background.0" x="321.49" y="-1.60" angle="90.00" type="human" speed="12.24" pos="21.49" lane="e1_0" slope="0.00"/>
        <vehicle id="background.1" x="19.31" y="-1.60" angle="90.00" type="human" speed="0.05" pos="19.31" lane="e0_0" slope="0.00"/>
        <vehicle id="ego" x="27.35" y="-1.60" angle="90.00" type="ego_type" speed="1.00" pos="27.35" lane="e0_0" slope="0.00"/>
    </timestep>
    <timestep time="36.00">
        <vehicle id="background.0" x="327.63" y="-1.60" angle="90.00" type="human" speed="12.27" pos="27.63" lane="e1_0" slope="0.00"/>
        <vehicle id="background.1" x="19.53" y="-1.60" angle="90.00" type="human" speed="0.42" pos="19.53" lane="e0_0" slope="0.00"/>
        <vehicle id="ego" x="27.35" y="-1.60" angle="90.00" type="ego_type" speed="0.00" pos="27.35" lane="e0_0" slope="0.00"/>
    </timestep>
    <timestep time="36.50">
        <vehicle id="background.0" x="333.73" y="-1.60" angle="90.00" type="human" speed="12.21" pos="33.73" lane="e1_0" slope="0.00"/>
        <vehicle id="background.1" x="19.66" y="-1.60" angle="90.00" type="human" speed="0.26" pos="19.66" lane="e0_0" slope="0.00"/>
        <vehicle id="ego" x="27.35" y="-1.60" angle="90.00" type="ego_type" speed="0.00" pos="27.35" lane="e0_0" slope="0.00"/>
    </timestep>
    <timestep time="37.00">
        <vehicle id="background.0" x="340.05" y="-1.60" angle="90.00" type="human" speed="12.64" pos="40.05" lane="e1_0" slope="0.00"/>
        <vehicle id="background.1" x="19.74" y="-1.60" angle="90.00" type="human" speed="0.18" pos="19.74" lane="e0_0" slope="0.00"/>
        <vehicle id="ego" x="27.60" y="-1.60" angle="90.00" type="ego_type" speed="0.50" pos="27.60" lane="e0_0" slope="0.00"/>
    </timestep>
    <timestep time="37.50">
        <vehicle id="background.0" x="346.26" y="-1.60" angle="90.00" type="human" speed="12.43" pos="46.26" lane="e1_0" slope="0.00"/>
        <vehicle id="background.1" x="19.92" y="-1.60" angle="90.00" type="human" speed="0.34" pos="19.92" lane="e0_0" slope="0.00"/>
        <vehicle id="ego" x="28.35" y="-1.60" angle="90.00" type="ego_type" speed="1.50" pos="28.35" lane="e0_0" slope="0.00"/>
    </timestep>
    <timestep time="38.00">
        <vehicle id="background.1" x="20.36" y="-1.60" angle="90.00" type="human" speed="0.89" pos="20.36" lane="e0_0" slope="0.00"/>
        <vehicle id="ego" x="29.10" y="-1.60" angle="90.00" type="ego_type" speed="1.50" pos="29.10" lane="e0_0" slope="0.00"/>
    </timestep>
    <timestep time="38.50">
        <vehicle id="background.1" x="20.86" y="-1.60" angle="90.00" type="human" speed="1.00" pos="20.86" lane="e0_0" slope="0.00"/>
        <vehicle id="ego" x="29.85" y="-1.60" angle="90.00" type="ego_type" speed="1.50" pos="29.85" lane="e0_0" slope="0.00"/>
    </timestep>
    <timestep time="39.00">
        <vehicle id="background.1" x="21.58" y="-1.60" angle="90.00" type="human" speed="1.44" pos="21.58" lane="e0_0" slope="0.00"/>
        <vehicle id="ego" x="30.85" y="-1.60" angle="90.00" type="ego_type" speed="2.00" pos="30.85" lane="e0_0" slope="0.00"/>
    </timestep>
    <timestep time="39.50">
        <vehicle id="background.1" x="22.29" y="-1.60" angle="90.00" type="human" speed="1.41" pos="22.29" lane="e0_0" slope="0.00"/>
        <vehicle id="ego" x="31.48" y="-1.60" angle="90.00" type="ego_type" speed="1.25" pos="31.48" lane="e0_0" slope="0.00"/>
    </timestep>
    <timestep time="40.00">
        <vehicle id="background.1" x="22.98" y="-1.60" angle="90.00" type="human" speed="1.39" pos="22.98" lane="e0_0" slope="0.00"/>
        <vehicle id="ego" x="31.73" y="-1.60" angle="90.00" type="ego_type" speed="0.50" pos="31.73" lane="e0_0" slope="0.00"/>
    </timestep>
    <timestep time="40.50">
        <vehicle id="background.1" x="23.50" y="-1.60" angle="90.00" type="human" speed="1.03" pos="23.50" lane="e0_0" slope="0.00"/>
        <vehicle id="ego" x="31.98" y="-1.60" angle="90.00" type="ego_type" speed="0.50" pos="31.98" lane="e0_0" slope="0.00"/>
    </timestep>
    <timestep time="41.00">
        <vehicle id="background.1" x="23.90" y="-1.60" angle="90.00" type="human" speed="0.82" pos="23.90" lane="e0_0" slope="0.00"/>
        <vehicle id="ego" x="31.98" y="-1.60" angle="90.00" type="ego_type" speed="0.00" pos="31.98" lane="e0_0" slope="0.00"/>
    </timestep>
    <timestep time="41.50">
        <vehicle id="background.1" x="24.12" y="-1.60" angle="90.00" type="human" speed="0.44" pos="24.12" lane="e0_0" slope="0.00"/>
        <vehicle id="ego" x="31.98" y="-1.60" angle="90.00" type="ego_type" speed="0.00" pos="31.98" lane="e0_0" slope="0.00"/>
    </timestep>
    <timestep time="42.00">
        <vehicle id="background.1" x="24.26" y="-1.60" angle="90.00" type="human" speed="0.28" pos="24.26" lane="e0_0" slope="0.00"/>
        <vehicle id="ego" x="31.98" y="-1.60" angle="90.00" type="ego_type" speed="0.00" pos="31.98" lane="e0_0" slope="0.00"/>
    </timestep>
    <timestep time="42.50">
        <vehicle id="background.1" x="24.36" y="-1.60" angle="90.00" type="human" speed="0.20" pos="24.36" lane="e0_0" slope="0.00"/>
        <vehicle id="ego" x="31.98" y="-1.60" angle="90.00" type="ego_type" speed="0.00" pos="31.98" lane="e0_0" slope="0.00"/>
    </timestep>
    <timestep time="43.00">
        <vehicle id="background.1" x="24.41" y="-1.60" angle="90.00" type="human" speed="0.09" pos="24.41" lane="e0_0" slope="0.00"/>
        <vehicle id="ego" x="31.98" y="-1.60" angle="90.00" type="ego_type" speed="0.00" pos="31.98" lane="e0_0" slope="0.00"/>
    </timestep>
    <timestep time="43.50">
        <vehicle id="background.1" x="24.44" y="-1.60" angle="90.00" type="human" speed="0.06" pos="24.44" lane="e0_0" slope="0.00"/>
        <vehicle id="ego" x="31.98" y="-1.60" angle="90.00" type="ego_type" speed="0.00" pos="31.98" lane="e0_0" slope="0.00"/>
    </timestep>
    <timestep time="44.00">
        <vehicle id="background.1" x="24.45" y="-1.60" angle="90.00" type="human" speed="0.03" pos="24.45" lane="e0_0" slope="0.00"/>
        <vehicle id="ego" x="32.48" y="-1.60" angle="90.00" type="ego_type" speed="1.00" pos="32.48" lane="e0_0" slope="0.00"/>
    </timestep>
    <timestep time="44.50">
        <vehicle id="background.1" x="24.69" y="-1.60" angle="90.00" type="human" speed="0.48" pos="24.69" lane="e0_0" slope="0.00"/>
        <vehicle id="ego" x="32.48" y="-1.60" angle="90.00" type="ego_type" speed="0.00" pos="32.48" lane="e0_0" slope="0.00"/>
    </timestep>
    <timestep time="45.00">
        <vehicle id="background.1" x="24.81" y="-1.60" angle="90.00" type="human" speed="0.23" pos="24.81" lane="e0_0" slope="0.00"/>
        <vehicle id="ego" x="32.98" y="-1.60" angle="90.00" type="ego_type" speed="1.00" pos="32.98" lane="e0_0" slope="0.00"/>
    </timestep>
    <timestep time="45.50">
        <vehicle id="background.1" x="25.13" y="-1.60" angle="90.00" type="human" speed="0.65" pos="25.13" lane="e0_0" slope="0.00"/>
        <vehicle id="ego" x="33.10" y="-1.60" angle="90.00" type="ego_type" speed="0.25" pos="33.10" lane="e0_0" slope="0.00"/>
    </timestep>
    <timestep time="46.00">
        <vehicle id="background.1" x="25.35" y="-1.60" angle="90.00" type="human" speed="0.42" pos="25.35" lane="e0_0" slope="0.00"/>
        <vehicle id="ego" x="33.10" y="-1.60" angle="90.00" type="ego_type" speed="0.00" pos="33.10" lane="e0_0" slope="0.00"/>
    </timestep>
    <timestep time="46.50">
        <vehicle id="background.1" x="25.47" y="-1.60" angle="90.00" type="human" speed="0.25" pos="25.47" lane="e0_0" slope="0.00"/>
        <vehicle id="ego" x="33.10" y="-1.60" angle="90.00" type="ego_type" speed="0.00" pos="33.10" lane="e0_0" slope="0.00"/>
    </timestep>
    <timestep time="47.00">
        <vehicle id="background.1" x="25.53" y="-1.60" angle="90.00" type="human" speed="0.11" pos="25.53" lane="e0_0" slope="0.00"/>
        <vehicle id="ego" x="33.60" y="-1.60" angle="90.00" type="ego_type" speed="1.00" pos="33.60" lane="e0_0" slope="0.00"/>
    </timestep>
    <timestep time="47.50">
        <vehicle id="background.1" x="25.80" y="-1.60" angle="90.00" type="human" speed="0.54" pos="25.80" lane="e0_0" slope="0.00"/>
        <vehicle id="ego" x="34.35" y="-1.60" angle="90.00" type="ego_type" speed="1.50" pos="34.35" lane="e0_0" slope="0.00"/>
    </timestep>
    <timestep time="48.00">
        <vehicle id="background.1" x="26.23" y="-1.60" angle="90.00" type="human" speed="0.88" pos="26.23" lane="e0_0" slope="0.00"/>
        <vehicle id="ego" x="35.10" y="-1.60" angle="90.00" type="ego_type" speed="1.50" pos="35.10" lane="e0_0" slope="0.00"/>
    </timestep>
    <timestep time="48.50">
        <vehicle id="background.1" x="26.78" y="-1.60" angle="90.00" type="human" speed="1.08" pos="26.78" lane="e0_0" slope="0.00"/>