<?xml version="1.0" encoding="UTF-8"?>

<!-- generated on 2026-05-13 21:24:51 by Eclipse SUMO sumo Version 1.24.0
<sumoConfiguration xmlns:xsi="http://www.w3.org/2001/XMLSchema-instance" xsi:noNamespaceSchemaLocation="http://sumo.dlr.de/xsd/sumoConfiguration.xsd">

    <input>
        <net-file value="scenarios/simple_arterial/simple_arterial.net.xml"/>
        <route-files value="scenarios/simple_arterial/simple_arterial.rou.xml"/>
        <additional-files value="scenarios/simple_arterial/simple_arterial.tls.xml"/>
    </input>

    <output>
        <fcd-output value="runs/fcd_random/episode_00014_seed_114.fcd.xml"/>
    </output>

    <time>
        <begin value="0"/>
        <end value="900"/>
        <step-length value="0.5"/>
    </time>

    <report>
        <no-warnings value="true"/>
    </report>

    <traci_server>
        <remote-port value="30543"/>
    </traci_server>

    <random_number>
        <seed value="114"/>
    </random_number>

</sumoConfiguration>
-->

<fcd-export xmlns:xsi="http://www.w3.org/2001/XMLSchema-instance" xsi:noNamespaceSchemaLocation="http://sumo.dlr.de/xsd/fcd_file.xsd">
    <timestep time="0.00"/>
    <timestep time="0.50"/>
    <timestep time="1.00"/>
    <timestep time="1.50"/>
    <timestep time="2.00"/>
    <timestep time="2.50"/>
    <timestep time="3.00"/>
    <timestep time="3.50">
        <vehicle id="background.0" x="5.10" y="-1.60" angle="90.00" type="human" speed="13.89" pos="5.10" lane="e0_0" slope="0.00"/>
    </timestep>
    <timestep time="4.00">
        <vehicle id="background.0" x="12.00" y="-1.60" angle="90.00" type="human" speed="13.79" pos="12.00" lane="e0_0" slope="0.00"/>
    </timestep>
    <timestep time="4.50">
        <vehicle id="background.0" x="18.87" y="-1.60" angle="90.00" type="human" speed="13.74" pos="18.87" lane="e0_0" slope="0.00"/>
        <vehicle id="background.1" x="5.10" y="-1.60" angle="90.00" type="human" speed="11.64" pos="5.10" lane="e0_0" slope="0.00"/>
    </timestep>
    <timestep time="5.00">
        <vehicle id="background.0" x="25.64" y="-1.60" angle="90.00" type="human" speed="13.54" pos="25.64" lane="e0_0" slope="0.00"/>
        <vehicle id="background.1" x="10.83" y="-1.60" angle="90.00" type="human" speed="11.46" pos="10.83" lane="e0_0" slope="0.00"/>
    </timestep>
    <timestep time="5.50">
        <vehicle id="background.0" x="32.48" y="-1.60" angle="90.00" type="human" speed="13.68" pos="32.48" lane="e0_0" slope="0.00"/>
        <vehicle id="background.1" x="16.57" y="-1.60" angle="90.00" type="human" speed="11.48" pos="16.57" lane="e0_0" slope="0.00"/>
    </timestep>
    <timestep time="6.00">
        <vehicle id="background.0" x="39.28" y="-1.60" angle="90.00" type="human" speed="13.60" pos="39.28" lane="e0_0" slope="0.00"/>
        <vehicle id="background.1" x="22.67" y="-1.60" angle="90.00" type="human" speed="12.20" pos="22.67" lane="e0_0" slope="0.00"/>
    </timestep>
    <timestep time="6.50">
        <vehicle id="background.0" x="46.04" y="-1.60" angle="90.00" type="human" speed="13.53" pos="46.04" lane="e0_0" slope="0.00"/>
        <vehicle id="background.1" x="28.71" y="-1.60" angle="90.00" type="human" speed="12.08" pos="28.71" lane="e0_0" slope="0.00"/>
    </timestep>
    <timestep time="7.00">
        <vehicle id="background.0" x="52.94" y="-1.60" angle="90.00" type="human" speed="13.79" pos="52.94" lane="e0_0" slope="0.00"/>
        <vehicle id="background.1" x="34.95" y="-1.60" angle="90.00" type="human" speed="12.47" pos="34.95" lane="e0_0" slope="0.00"/>
    </timestep>
    <timestep time="7.50">
        <vehicle id="background.0" x="59.74" y="-1.60" angle="90.00" type="human" speed="13.60" pos="59.74" lane="e0_0" slope="0.00"/>
        <vehicle id="background.1" x="41.28" y="-1.60" angle="90.00" type="human" speed="12.66" pos="41.28" lane="e0_0" slope="0.00"/>
    </timestep>
    <timestep time="8.00">
        <vehicle id="background.0" x="66.53" y="-1.60" angle="90.00" type="human" speed="13.58" pos="66.53" lane="e0_0" slope="0.00"/>
        <vehicle id="background.1" x="47.49" y="-1.60" angle="90.00" type="human" speed="12.43" pos="47.49" lane="e0_0" slope="0.00"/>
    </timestep>
    <timestep time="8.50">
        <vehicle id="background.0" x="73.34" y="-1.60" angle="90.00" type="human" speed="13.62" pos="73.34" lane="e0_0" slope="0.00"/>
        <vehicle id="background.1" x="53.96" y="-1.60" angle="90.00" type="human" speed="12.94" pos="53.96" lane="e0_0" slope="0.00"/>
    </timestep>
    <timestep time="9.00">
        <vehicle id="background.0" x="80.09" y="-1.60" angle="90.00" type="human" speed="13.49" pos="80.09" lane="e0_0" slope="0.00"/>
        <vehicle id="background.1" x="60.44" y="-1.60" angle="90.00" type="human" speed="12.95" pos="60.44" lane="e0_0" slope="0.00"/>
    </timestep>
    <timestep time="9.50">
        <vehicle id="background.0" x="86.90" y="-1.60" angle="90.00" type="human" speed="13.62" pos="86.90" lane="e0_0" slope="0.00"/>
        <vehicle id="background.1" x="66.86" y="-1.60" angle="90.00" type="human" speed="12.84" pos="66.86" lane="e0_0" slope="0.00"/>
    </timestep>
    <timestep time="10.00">
        <vehicle id="background.0" x="93.74" y="-1.60" angle="90.00" type="human" speed="13.69" pos="93.74" lane="e0_0" slope="0.00"/>
        <vehicle id="background.1" x="73.41" y="-1.60" angle="90.00" type="human" speed="13.11" pos="73.41" lane="e0_0" slope="0.00"/>
    </timestep>
    <timestep time="10.50">
        <vehicle id="background.0" x="100.67" y="-1.60" angle="90.00" type="human" speed="13.85" pos="100.67" lane="e0_0" slope="0.00"/>
        <vehicle id="background.1" x="79.97" y="-1.60" angle="90.00" type="human" speed="13.12" pos="79.97" lane="e0_0" slope="0.00"/>
    </timestep>
    <timestep time="11.00">
        <vehicle id="background.0" x="107.43" y="-1.60" angle="90.00" type="human" speed="13.53" pos="107.43" lane="e0_0" slope="0.00"/>
        <vehicle id="background.1" x="86.69" y="-1.60" angle="90.00" type="human" speed="13.44" pos="86.69" lane="e0_0" slope="0.00"/>
    </timestep>
    <timestep time="11.50">
        <vehicle id="background.0" x="114.13" y="-1.60" angle="90.00" type="human" speed="13.39" pos="114.13" lane="e0_0" slope="0.00"/>
        <vehicle id="background.1" x="93.23" y="-1.60" angle="90.00" type="human" speed="13.09" pos="93.23" lane="e0_0" slope="0.00"/>
    </timestep>
    <timestep time="12.00">
        <vehicle id="background.0" x="121.04" y="-1.60" angle="90.00" type="human" speed="13.82" pos="121.04" lane="e0_0" slope="0.00"/>
        <vehicle id="background.1" x="99.86" y="-1.60" angle="90.00" type="human" speed="13.24" pos="99.86" lane="e0_0" slope="0.00"/>
    </timestep>
    <timestep time="12.50">
        <vehicle id="background.0" x="127.95" y="-1.60" angle="90.00" type="human" speed="13.81" pos="127.95" lane="e0_0" slope="0.00"/>
        <vehicle id="background.1" x="106.71" y="-1.60" angle="90.00" type="human" speed="13.71" pos="106.71" lane="e0_0" slope="0.00"/>
    </timestep>
    <timestep time="13.00">
        <vehicle id="background.0" x="134.84" y="-1.60" angle="90.00" type="human" speed="13.79" pos="134.84" lane="e0_0" slope="0.00"/>
        <vehicle id="background.1" x="113.54" y="-1.60" angle="90.00" type="human" speed="13.67" pos="113.54" lane="e0_0" slope="0.00"/>
    </timestep>
    <timestep time="13.50">
        <vehicle id="background.0" x="141.55" y="-1.60" angle="90.00" type="human" speed="13.42" pos="141.55" lane="e0_0" slope="0.00"/>
        <vehicle id="background.1" x="120.20" y="-1.60" angle="90.00" type="human" speed="13.32" pos="120.20" lane="e0_0" slope="0.00"/>
    </timestep>
    <timestep time="14.00">
        <vehicle id="background.0" x="148.29" y="-1.60" angle="90.00" type="human" speed="13.49" pos="148.29" lane="e0_0" slope="0.00"/>
        <vehicle id="background.1" x="126.89" y="-1.60" angle="90.00" type="human" speed="13.38" pos="126.89" lane="e0_0" slope="0.00"/>
    </timestep>
    <timestep time="14.50">
        <vehicle id="background.0" x="155.01" y="-1.60" angle="90.00" type="human" speed="13.44" pos="155.01" lane="e0_0" slope="0.00"/>
        <vehicle id="background.1" x="133.60" y="-1.60" angle="90.00" type="human" speed="13.42" pos="133.60" lane="e0_0" slope="0.00"/>
    </timestep>
    <timestep time="15.00">
        <vehicle id="background.0" x="161.72" y="-1.60" angle="90.00" type="human" speed="13.41" pos="161.72" lane="e0_0" slope="0.00"/>
        <vehicle id="background.1" x="140.31" y="-1.60" angle="90.00" type="human" speed="13.41" pos="140.31" lane="e0_0" slope="0.00"/>
    </timestep>
    <timestep time="15.50">
        <vehicle id="background.0" x="168.47" y="-1.60" angle="90.00" type="human" speed="13.50" pos="168.47" lane="e0_0" slope="0.00"/>
        <vehicle id="background.1" x="146.95" y="-1.60" angle="90.00" type="human" speed="13.28" pos="146.95" lane="e0_0" slope="0.00"/>
    </timestep>
    <timestep time="16.00">
        <vehicle id="background.0" x="175.19" y="-1.60" angle="90.00" type="human" speed="13.44" pos="175.19" lane="e0_0" slope="0.00"/>
        <vehicle id="background.1" x="153.52" y="-1.60" angle="90.00" type="human" speed="13.15" pos="153.52" lane="e0_0" slope="0.00"/>
    </timestep>
    <timestep time="16.50">
        <vehicle id="background.0" x="182.05" y="-1.60" angle="90.00" type="human" speed="13.73" pos="182.05" lane="e0_0" slope="0.00"/>
        <vehicle id="background.1" x="160.12" y="-1.60" angle="90.00" type="human" speed="13.19" pos="160.12" lane="e0_0" slope="0.00"/>
    </timestep>
    <timestep time="17.00">
        <vehicle id="background.0" x="188.88" y="-1.60" angle="90.00" type="human" speed="13.65" pos="188.88" lane="e0_0" slope="0.00"/>
        <vehicle id="background.1" x="166.84" y="-1.60" angle="90.00" type="human" speed="13.44" pos="166.84" lane="e0_0" slope="0.00"/>
    </timestep>
    <timestep time="17.50">
        <vehicle id="background.0" x="195.65" y="-1.60" angle="90.00" type="human" speed="13.54" pos="195.65" lane="e0_0" slope="0.00"/>
        <vehicle id="background.1" x="173.73" y="-1.60" angle="90.00" type="human" speed="13.78" pos="173.73" lane="e0_0" slope="0.00"/>
    </timestep>
    <timestep time="18.00">
        <vehicle id="background.0" x="202.37" y="-1.60" angle="90.00" type="human" speed="13.44" pos="202.37" lane="e0_0" slope="0.00"/>
        <vehicle id="background.1" x="180.60" y="-1.60" angle="90.00" type="human" speed="13.75" pos="180.60" lane="e0_0" slope="0.00"/>
    </timestep>
    <timestep time="18.50">
        <vehicle id="background.0" x="209.12" y="-1.60" angle="90.00" type="human" speed="13.50" pos="209.12" lane="e0_0" slope="0.00"/>
        <vehicle id="background.1" x="187.33" y="-1.60" angle="90.00" type="human" speed="13.46" pos="187.33" lane="e0_0" slope="0.00"/>
    </timestep>
    <timestep time="19.00">
        <vehicle id="background.0" x="216.00" y="-1.60" angle="90.00" type="human" speed="13.76" pos="216.00" lane="e0_0" slope="0.00"/>
        <vehicle id="background.1" x="194.02" y="-1.60" angle="90.00" type="human" speed="13.38" pos="194.02" lane="e0_0" slope="0.00"/>
    </timestep>
    <timestep time="19.50">
        <vehicle id="background.0" x="222.88" y="-1.60" angle="90.00" type="human" speed="13.76" pos="222.88" lane="e0_0" slope="0.00"/>
        <vehicle id="background.1" x="200.85" y="-1.60" angle="90.00" type="human" speed="13.66" pos="200.85" lane="e0_0" slope="0.00"/>
    </timestep>
    <timestep time="20.00">
        <vehicle id="background.0" x="229.80" y="-1.60" angle="90.00" type="human" speed="13.86" pos="229.80" lane="e0_0" slope="0.00"/>
        <vehicle id="background.1" x="207.70" y="-1.60" angle="90.00" type="human" speed="13.69" pos="207.70" lane="e0_0" slope="0.00"/>
        <vehicle id="background.2" x="5.10" y="-1.60" angle="90.00" type="human" speed="11.80" pos="5.10" lane="e0_0" slope="0.00"/>
    </timestep>
    <timestep time="20.50">
        <vehicle id="background.0" x="236.70" y="-1.60" angle="90.00" type="human" speed="13.78" pos="236.70" lane="e0_0" slope="0.00"/>
        <vehicle id="background.1" x="214.58" y="-1.60" angle="90.00" type="human" speed="13.77" pos="214.58" lane="e0_0" slope="0.00"/>
        <vehicle id="background.2" x="10.88" y="-1.60" angle="90.00" type="human" speed="11.56" pos="10.88" lane="e0_0" slope="0.00"/>
    </timestep>
    <timestep time="21.00">
        <vehicle id="background.0" x="243.50" y="-1.60" angle="90.00" type="human" speed="13.62" pos="243.50" lane="e0_0" slope="0.00"/>
        <vehicle id="background.1" x="221.49" y="-1.60" angle="90.00" type="human" speed="13.82" pos="221.49" lane="e0_0" slope="0.00"/>
        <vehicle id="background.2" x="16.71" y="-1.60" angle="90.00" type="human" speed="11.66" pos="16.71" lane="e0_0" slope="0.00"/>
    </timestep>
    <timestep time="21.50">
        <vehicle id="background.0" x="250.21" y="-1.60" angle="90.00" type="human" speed="13.40" pos="250.21" lane="e0_0" slope="0.00"/>
        <vehicle id="background.1" x="228.27" y="-1.60" angle="90.00" type="human" speed="13.55" pos="228.27" lane="e0_0" slope="0.00"/>
        <vehicle id="background.2" x="22.58" y="-1.60" angle="90.00" type="human" speed="11.74" pos="22.58" lane="e0_0" slope="0.00"/>
    </timestep>
    <timestep time="22.00">
        <vehicle id="background.0" x="256.94" y="-1.60" angle="90.00" type="human" speed="13.48" pos="256.94" lane="e0_0" slope="0.00"/>
        <vehicle id="background.1" x="235.01" y="-1.60" angle="90.00" type="human" speed="13.48" pos="235.01" lane="e0_0" slope="0.00"/>
        <vehicle id="background.2" x="28.27" y="-1.60" angle="90.00" type="human" speed="11.38" pos="28.27" lane="e0_0" slope="0.00"/>
    </timestep>
    <timestep time="22.50">
        <vehicle id="background.0" x="263.74" y="-1.60" angle="90.00" type="human" speed="13.60" pos="263.74" lane="e0_0" slope="0.00"/>
        <vehicle id="background.1" x="241.67" y="-1.60" angle="90.00" type="human" speed="13.33" pos="241.67" lane="e0_0" slope="0.00"/>
        <vehicle id="background.2" x="34.07" y="-1.60" angle="90.00" type="human" speed="11.60" pos="34.07" lane="e0_0" slope="0.00"/>
    </timestep>
    <timestep time="23.00">
        <vehicle id="background.0" x="270.67" y="-1.60" angle="90.00" type="human" speed="13.85" pos="270.67" lane="e0_0" slope="0.00"/>
        <vehicle id="background.1" x="248.48" y="-1.60" angle="90.00" type="human" speed="13.61" pos="248.48" lane="e0_0" slope="0.00"/>
        <vehicle id="background.2" x="39.81" y="-1.60" angle="90.00" type="human" speed="11.49" pos="39.81" lane="e0_0" slope="0.00"/>
    </timestep>
    <timestep time="23.50">
        <vehicle id="background.0" x="277.59" y="-1.60" angle="90.00" type="human" speed="13.84" pos="277.59" lane="e0_0" slope="0.00"/>
        <vehicle id="background.1" x="255.30" y="-1.60" angle="90.00" type="human" speed="13.64" pos="255.30" lane="e0_0" slope="0.00"/>
        <vehicle id="background.2" x="45.54" y="-1.60" angle="90.00" type="human" speed="11.47" pos="45.54" lane="e0_0" slope="0.00"/>
    </timestep>
    <timestep time="24.00">
        <vehicle id="background.0" x="284.45" y="-1.60" angle="90.00" type="human" speed="13.72" pos="284.45" lane="e0_0" slope="0.00"/>
        <vehicle id="background.1" x="262.06" y="-1.60" angle="90.00" type="human" speed="13.52" pos="262.06" lane="e0_0" slope="0.00"/>
        <vehicle id="background.2" x="51.39" y="-1.60" angle="90.00" type="human" speed="11.70" pos="51.39" lane="e0_0" slope="0.00"/>
    </timestep>
    <timestep time="24.50">
        <vehicle id="background.0" x="291.19" y="-1.60" angle="90.00" type="human" speed="13.49" pos="291.19" lane="e0_0" slope="0.00"/>
        <vehicle id="background.1" x="268.80" y="-1.60" angle="90.00" type="human" speed="13.48" pos="268.80" lane="e0_0" slope="0.00"/>
        <vehicle id="background.2" x="57.27" y="-1.60" angle="90.00" type="human" speed="11.75" pos="57.27" lane="e0_0" slope="0.00"/>
    </timestep>
    <timestep time="25.00">
        <vehicle id="background.0" x="297.90" y="-1.60" angle="90.00" type="human" speed="13.42" pos="297.90" lane="e0_0" slope="0.00"/>
        <vehicle id="background.1" x="275.63" y="-1.60" angle="90.00" type="human" speed="13.66" pos="275.63" lane="e0_0" slope="0.00"/>
        <vehicle id="background.2" x="63.14" y="-1.60" angle="90.00" type="human" speed="11.74" pos="63.14" lane="e0_0" slope="0.00"/>
    </timestep>
    <timestep time="25.50">
        <vehicle id="background.0" x="304.52" y="-1.60" angle="90.00" type="human" speed="13.44" pos="4.52" lane="e1_0" slope="0.00"/>
        <vehicle id="background.1" x="282.38" y="-1.60" angle="90.00" type="human" speed="13.50" pos="282.38" lane="e0_0" slope="0.00"/>
        <vehicle id="background.2" x="69.04" y="-1.60" angle="90.00" type="human" speed="11.80" pos="69.04" lane="e0_0" slope="0.00"/>
    </timestep>
    <timestep time="26.00">
        <vehicle id="background.0" x="311.37" y="-1.60" angle="90.00" type="human" speed="13.70" pos="11.37" lane="e1_0" slope="0.00"/>
        <vehicle id="background.1" x="289.06" y="-1.60" angle="90.00" type="human" speed="13.36" pos="289.06" lane="e0_0" slope="0.00"/>
        <vehicle id="background.2" x="74.87" y="-1.60" angle="90.00" type="human" speed="11.66" pos="74.87" lane="e0_0" slope="0.00"/>
    </timestep>
    <timestep time="26.50">
        <vehicle id="background.0" x="318.17" y="-1.60" angle="90.00" type="human" speed="13.60" pos="18.17" lane="e1_0" slope="0.00"/>
        <vehicle id="background.1" x="295.85" y="-1.60" angle="90.00" type="human" speed="13.59" pos="295.85" lane="e0_0" slope="0.00"/>
        <vehicle id="background.2" x="80.72" y="-1.60" angle="90.00" type="human" speed="11.70" pos="80.72" lane="e0_0" slope="0.00"/>
    </timestep>
    <timestep time="27.00">
        <vehicle id="background.0" x="325.03" y="-1.60" angle="90.00" type="human" speed="13.72" pos="25.03" lane="e1_0" slope="0.00"/>
        <vehicle id="background.1" x="302.64" y="-1.60" angle="90.00" type="human" speed="13.78" pos="2.64" lane="e1_0" slope="0.00"/>
        <vehicle id="background.2" x="86.52" y="-1.60" angle="90.00" type="human" speed="11.61" pos="86.52" lane="e0_0" slope="0.00"/>
        <vehicle id="background.3" x="5.10" y="-1.60" angle="90.00" type="human" speed="13.36" pos="5.10" lane="e0_0" slope="0.00"/>
    </timestep>
    <timestep time="27.50">
        <vehicle id="background.0" x="331.73" y="-1.60" angle="90.00" type="human" speed="13.39" pos="31.73" lane="e1_0" slope="0.00"/>
        <vehicle id="background.1" x="309.35" y="-1.60" angle="90.00" type="human" speed="13.41" pos="9.35" lane="e1_0" slope="0.00"/>
        <vehicle id="background.2" x="92.22" y="-1.60" angle="90.00" type="human" speed="11.40" pos="92.22" lane="e0_0" slope="0.00"/>
        <vehicle id="background.3" x="11.62" y="-1.60" angle="90.00" type="human" speed="13.04" pos="11.62" lane="e0_0" slope="0.00"/>
    </timestep>
    <timestep time="28.00">
        <vehicle id="background.0" x="338.55" y="-1.60" angle="90.00" type="human" speed="13.64" pos="38.55" lane="e1_0" slope="0.00"/>
        <vehicle id="background.1" x="316.23" y="-1.60" angle="90.00" type="human" speed="13.76" pos="16.23" lane="e1_0" slope="0.00"/>
        <vehicle id="background.2" x="97.89" y="-1.60" angle="90.00" type="human" speed="11.34" pos="97.89" lane="e0_0" slope="0.00"/>
        <vehicle id="background.3" x="18.08" y="-1.60" angle="90.00" type="human" speed="12.93" pos="18.08" lane="e0_0" slope="0.00"/>
    </timestep>
    <timestep time="28.50">
        <vehicle id="background.0" x="345.39" y="-1.60" angle="90.00" type="human" speed="13.68" pos="45.39" lane="e1_0" slope="0.00"/>
        <vehicle id="background.1" x="323.17" y="-1.60" angle="90.00" type="human" speed="13.87" pos="23.17" lane="e1_0" slope="0.00"/>
        <vehicle id="background.2" x="103.56" y="-1.60" angle="90.00" type="human" speed="11.33" pos="103.56" lane="e0_0" slope="0.00"/>
        <vehicle id="background.3" x="24.55" y="-1.60" angle="90.00" type="human" speed="12.94" pos="24.55" lane="e0_0" slope="0.00"/>
    </timestep>
    <timestep time="29.00">
        <vehicle id="background.1" x="329.91" y="-1.60" angle="90.00" type="human" speed="13.48" pos="29.91" lane="e1_0" slope="0.00"/>
        <vehicle id="background.2" x="109.45" y="-1.60" angle="90.00" type="human" speed="11.78" pos="109.45" lane="e0_0" slope="0.00"/>
        <vehicle id="background.3" x="31.17" y="-1.60" angle="90.00" type="human" speed="13.25" pos="31.17" lane="e0_0" slope="0.00"/>
    </timestep>
    <timestep time="29.50">
        <vehicle id="background.1" x="336.69" y="-1.60" angle="90.00" type="human" speed="13.56" pos="36.69" lane="e1_0" slope="0.00"/>
        <vehicle id="background.2" x="115.21" y="-1.60" angle="90.00" type="human" speed="11.53" pos="115.21" lane="e0_0" slope="0.00"/>
        <vehicle id="background.3" x="37.80" y="-1.60" angle="90.00" type="human" speed="13.26" pos="37.80" lane="e0_0" slope="0.00"/>
    </timestep>
    <timestep time="30.00">
        <vehicle id="background.1" x="343.61" y="-1.60" angle="90.00" type="human" speed="13.85" pos="43.61" lane="e1_0" slope="0.00"/>
        <vehicle id="background.2" x="121.10" y="-1.60" angle="90.00" type="human" speed="11.78" pos="121.10" lane="e0_0" slope="0.00"/>
        <vehicle id="background.3" x="44.27" y="-1.60" angle="90.00" type="human" speed="12.92" pos="44.27" lane="e0_0" slope="0.00"/>
    </timestep>
    <timestep time="30.50">
        <vehicle id="background.2" x="126.99" y="-1.60" angle="90.00" type="human" speed="11.78" pos="126.99" lane="e0_0" slope="0.00"/>
        <vehicle id="background.3" x="50.87" y="-1.60" angle="90.00" type="human" speed="13.21" pos="50.87" lane="e0_0" slope="0.00"/>
    </timestep>
    <timestep time="31.00">
        <vehicle id="background.2" x="132.87" y="-1.60" angle="90.00" type="human" speed="11.76" pos="132.87" lane="e0_0" slope="0.00"/>
        <vehicle id="background.3" x="57.51" y="-1.60" angle="90.00" type="human" speed="13.27" pos="57.51" lane="e0_0" slope="0.00"/>
    </timestep>
    <timestep time="31.50">
        <vehicle id="background.2" x="138.68" y="-1.60" angle="90.00" type="human" speed="11.61" pos="138.68" lane="e0_0" slope="0.00"/>
        <vehicle id="background.3" x="64.02" y="-1.60" angle="90.00" type="human" speed="13.02" pos="64.02" lane="e0_0" slope="0.00"/>
    </timestep>
    <timestep time="32.00">
        <vehicle id="background.2" x="144.39" y="-1.60" angle="90.00" type="human" speed="11.43" pos="144.39" lane="e0_0" slope="0.00"/>
        <vehicle id="background.3" x="70.63" y="-1.60" angle="90.00" type="human" speed="13.23" pos="70.63" lane="e0_0" slope="0.00"/>
    </timestep>
    <timestep time="32.50">
        <vehicle id="background.2" x="150.09" y="-1.60" angle="90.00" type="human" speed="11.38" pos="150.09" lane="e0_0" slope="0.00"/>
        <vehicle id="background.3" x="77.28" y="-1.60" angle="90.00" type="human" speed="13.31" pos="77.28" lane="e0_0" slope="0.00"/>
    </timestep>
    <timestep time="33.00">
        <vehicle id="background.2" x="155.76" y="-1.60" angle="90.00" type="human" speed="11.35" pos="155.76" lane="e0_0" slope="0.00"/>
        <vehicle id="background.3" x="83.78" y="-1.60" angle="90.00" type="human" speed="12.99" pos="83.78" lane="e0_0" slope="0.00"/>
    </timestep>
    <timestep time="33.50">
        <vehicle id="background.2" x="161.64" y="-1.60" angle="90.00" type="human" speed="11.75" pos="161.64" lane="e0_0" slope="0.00"/>
        <vehicle id="background.3" x="90.32" y="-1.60" angle="90.00" type="human" speed="13.07" pos="90.32" lane="e0_0" slope="0.00"/>
    </timestep>
    <timestep time="34.00">
        <vehicle id="background.2" x="167.50" y="-1.60" angle="90.00" type="human" speed="11.73" pos="167.50" lane="e0_0" slope="0.00"/>
        <vehicle id="background.3" x="96.90" y="-1.60" angle="90.00" type="human" speed="13.16" pos="96.90" lane="e0_0" slope="0.00"/>
    </timestep>
    <timestep time="34.50">
        <vehicle id="background.2" x="173.36" y="-1.60" angle="90.00" type="human" speed="11.72" pos="173.36" lane="e0_0" slope="0.00"/>
        <vehicle id="background.3" x="103.53" y="-1.60" angle="90.00" type="human" speed="13.27" pos="103.53" lane="e0_0" slope="0.00"/>
    </timestep>
    <timestep time="35.00">
        <vehicle id="background.2" x="179.17" y="-1.60" angle="90.00" type="human" speed="11.61" pos="179.17" lane="e0_0" slope="0.00"/>
        <vehicle id="background.3" x="109.96" y="-1.60" angle="90.00" type="human" speed="12.86" pos="109.96" lane="e0_0" slope="0.00"/>
    </timestep>
    <timestep time="35.50">
        <vehicle id="background.2" x="184.99" y="-1.60" angle="90.00" type="human" speed="11.65" pos="184.99" lane="e0_0" slope="0.00"/>
        <vehicle id="background.3" x="116.50" y="-1.60" angle="90.00" type="human" speed="13.08" pos="116.50" lane="e0_0" slope="0.00"/>
    </timestep>
    <timestep time="36.00">
        <vehicle id="background.2" x="190.78" y="-1.60" angle="90.00" type="human" speed="11.58" pos="190.78" lane="e0_0" slope="0.00"/>
        <vehicle id="background.3" x="122.97" y="-1.60" angle="90.00" type="human" speed="12.93" pos="122.97" lane="e0_0" slope="0.00"/>
    </timestep>
    <timestep time="36.50">
        <vehicle id="background.2" x="196.63" y="-1.60" angle="90.00" type="human" speed="11.69" pos="196.63" lane="e0_0" slope="0.00"/>
        <vehicle id="background.3" x="129.54" y="-1.60" angle="90.00" type="human" speed="13.16" pos="129.54" lane="e0_0" slope="0.00"/>
    </timestep>
    <timestep time="37.00">
        <vehicle id="background.2" x="202.37" y="-1.60" angle="90.00" type="human" speed="11.50" pos="202.37" lane="e0_0" slope="0.00"/>
        <vehicle id="background.3" x="136.08" y="-1.60" angle="90.00" type="human" speed="13.08" pos="136.08" lane="e0_0" slope="0.00"/>
    </timestep>
    <timestep time="37.50">
        <vehicle id="background.2" x="208.20" y="-1.60" angle="90.00" type="human" speed="11.66" pos="208.20" lane="e0_0" slope="0.00"/>
        <vehicle id="background.3" x="142.70" y="-1.60" angle="90.00" type="human" speed="13.24" pos="142.70" lane="e0_0" slope="0.00"/>
    </timestep>
    <timestep time="38.00">
        <vehicle id="background.2" x="214.00" y="-1.60" angle="90.00" type="human" speed="11.59" pos="214.00" lane="e0_0" slope="0.00"/>
        <vehicle id="background.3" x="149.19" y="-1.60" angle="90.00" type="human" speed="12.97" pos="149.19" lane="e0_0" slope="0.00"/>
    </timestep>
    <timestep time="38.50">
        <vehicle id="background.2" x="219.81" y="-1.60" angle="90.00" type="human" speed="11.62" pos="219.81" lane="e0_0" slope="0.00"/>
        <vehicle id="background.3" x="155.69" y="-1.60" angle="90.00" type="human" speed="13.01" pos="155.69" lane="e0_0" slope="0.00"/>
    </timestep>
    <timestep time="39.00">
        <vehicle id="background.2" x="225.46" y="-1.60" angle="90.00" type="human" speed="11.31" pos="225.46" lane="e0_0" slope="0.00"/>
        <vehicle id="background.3" x="162.21" y="-1.60" angle="90.00" type="human" speed="13.03" pos="162.21" lane="e0_0" slope="0.00"/>
    </timestep>
    <timestep time="39.50">
        <vehicle id="background.2" x="231.17" y="-1.60" angle="90.00" type="human" speed="11.42" pos="231.17" lane="e0_0" slope="0.00"/>
        <vehicle id="background.3" x="168.68" y="-1.60" angle="90.00" type="human" speed="12.94" pos="168.68" lane="e0_0" slope="0.00"/>
    </timestep>
    <timestep time="40.00">
        <vehicle id="background.2" x="236.90" y="-1.60" angle="90.00" type="human" speed="11.45" pos="236.90" lane="e0_0" slope="0.00"/>
        <vehicle id="background.3" x="175.23" y="-1.60" angle="90.00" type="human" speed="13.10" pos="175.23" lane="e0_0" slope="0.00"/>
    </timestep>
    <timestep time="40.50">
        <vehicle id="background.2" x="242.55" y="-1.60" angle="90.00" type="human" speed="11.31" pos="242.55" lane="e0_0" slope="0.00"/>
        <vehicle id="background.3" x="181.72" y="-1.60" angle="90.00" type="human" speed="12.99" pos="181.72" lane="e0_0" slope="0.00"/>
    </timestep>
    <timestep time="41.00">
        <vehicle id="background.2" x="248.21" y="-1.60" angle="90.00" type="human" speed="11.32" pos="248.21" lane="e0_0" slope="0.00"/>
        <vehicle id="background.3" x="188.25" y="-1.60" angle="90.00" type="human" speed="13.06" pos="188.25" lane="e0_0" slope="0.00"/>
        <vehicle id="background.4" x="5.10" y="-1.60" angle="90.00" type="human" speed="13.89" pos="5.10" lane="e0_0" slope="0.00"/>
    </timestep>
    <timestep time="41.50">
        <vehicle id="background.2" x="254.00" y="-1.60" angle="90.00" type="human" speed="11.57" pos="254.00" lane="e0_0" slope="0.00"/>
        <vehicle id="background.3" x="194.93" y="-1.60" angle="90.00" type="human" speed="13.35" pos="194.93" lane="e0_0" slope="0.00"/>
        <vehicle id="background.4" x="11.95" y="-1.60" angle="90.00" type="human" speed="13.69" pos="11.95" lane="e0_0" slope="0.00"/>
    </timestep>
    <timestep time="42.00">
        <vehicle id="background.2" x="259.83" y="-1.60" angle="90.00" type="human" speed="11.67" pos="259.83" lane="e0_0" slope="0.00"/>
        <vehicle id="background.3" x="201.56" y="-1.60" angle="90.00" type="human" speed="13.27" pos="201.56" lane="e0_0" slope="0.00"/>
        <vehicle id="background.4" x="18.87" y="-1.60" angle="90.00" type="human" speed="13.85" pos="18.87" lane="e0_0" slope="0.00"/>
    </timestep>
    <timestep time="42.50">
        <vehicle id="background.2" x="265.64" y="-1.60" angle="90.00" type="human" speed="11.62" pos="265.64" lane="e0_0" slope="0.00"/>
        <vehicle id="background.3" x="208.13" y="-1.60" angle="90.00" type="human" speed="13.12" pos="208.13" lane="e0_0" slope="0.00"/>
        <vehicle id="background.4" x="25.64" y="-1.60" angle="90.00" type="human" speed="13.55" pos="25.64" lane="e0_0" slope="0.00"/>
    </timestep>
    <timestep time="43.00">