<?xml version="1.0" encoding="UTF-8"?>

<!-- generated on 2026-05-13 21:24:42 by Eclipse SUMO sumo Version 1.24.0
<sumoConfiguration xmlns:xsi="http://www.w3.org/2001/XMLSchema-instance" xsi:noNamespaceSchemaLocation="http://sumo.dlr.de/xsd/sumoConfiguration.xsd">

    <input>
        <net-file value="scenarios/simple_arterial/simple_arterial.net.xml"/>
        <route-files value="scenarios/simple_arterial/simple_arterial.rou.xml"/>
        <additional-files value="scenarios/simple_arterial/simple_arterial.tls.xml"/>
    </input>

    <output>
        <fcd-output value="runs/fcd_random/episode_00007_seed_107.fcd.xml"/>
    </output>

    <time>
        <begin value="0"/>
        <end value="900"/>
        <step-length value="0.5"/>
    </time>

    <report>
        <no-warnings value="true"/>
    </report>

    <traci_server>
        <remote-port value="30543"/>
    </traci_server>

    <random_number>
        <seed value="107"/>
    </random_number>

</sumoConfiguration>
-->

<fcd-export xmlns:xsi="http://www.w3.org/2001/XMLSchema-instance" xsi:noNamespaceSchemaLocation="http://sumo.dlr.de/xsd/fcd_file.xsd">
    <timestep time="0.00"/>
    <timestep time="0.50"/>
    <timestep time="1.00"/>
    <timestep time="1.50"/>
    <timestep time="2.00"/>
    <timestep time="2.50"/>
    <timestep time="3.00"/>
    <timestep time="3.50"/>
    <timestep time="4.00"/>
    <timestep time="4.50"/>
    <timestep time="5.00"/>
    <timestep time="5.50">
        <vehicle id="background.0" x="5.10" y="-1.60" angle="90.00" type="human" speed="13.89" pos="5.10" lane="e0_0" slope="0.00"/>
    </timestep>
    <timestep time="6.00">
        <vehicle id="background.0" x="11.99" y="-1.60" angle="90.00" type="human" speed="13.77" pos="11.99" lane="e0_0" slope="0.00"/>
    </timestep>
    <timestep time="6.50">
        <vehicle id="background.0" x="18.70" y="-1.60" angle="90.00" type="human" speed="13.44" pos="18.70" lane="e0_0" slope="0.00"/>
    </timestep>
    <timestep time="7.00">
        <vehicle id="background.0" x="25.64" y="-1.60" angle="90.00" type="human" speed="13.87" pos="25.64" lane="e0_0" slope="0.00"/>
    </timestep>
    <timestep time="7.50">
        <vehicle id="background.0" x="32.46" y="-1.60" angle="90.00" type="human" speed="13.63" pos="32.46" lane="e0_0" slope="0.00"/>
    </timestep>
    <timestep time="8.00">
        <vehicle id="background.0" x="39.26" y="-1.60" angle="90.00" type="human" speed="13.60" pos="39.26" lane="e0_0" slope="0.00"/>
    </timestep>
    <timestep time="8.50">
        <vehicle id="background.0" x="46.05" y="-1.60" angle="90.00" type="human" speed="13.58" pos="46.05" lane="e0_0" slope="0.00"/>
    </timestep>
    <timestep time="9.00">
        <vehicle id="background.0" x="52.96" y="-1.60" angle="90.00" type="human" speed="13.83" pos="52.96" lane="e0_0" slope="0.00"/>
    </timestep>
    <timestep time="9.50">
        <vehicle id="background.0" x="59.86" y="-1.60" angle="90.00" type="human" speed="13.79" pos="59.86" lane="e0_0" slope="0.00"/>
    </timestep>
    <timestep time="10.00">
        <vehicle id="background.0" x="66.63" y="-1.60" angle="90.00" type="human" speed="13.55" pos="66.63" lane="e0_0" slope="0.00"/>
    </timestep>
    <timestep time="10.50">
        <vehicle id="background.0" x="73.50" y="-1.60" angle="90.00" type="human" speed="13.73" pos="73.50" lane="e0_0" slope="0.00"/>
    </timestep>
    <timestep time="11.00">
        <vehicle id="background.0" x="80.27" y="-1.60" angle="90.00" type="human" speed="13.55" pos="80.27" lane="e0_0" slope="0.00"/>
    </timestep>
    <timestep time="11.50">
        <vehicle id="background.0" x="87.15" y="-1.60" angle="90.00" type="human" speed="13.76" pos="87.15" lane="e0_0" slope="0.00"/>
    </timestep>
    <timestep time="12.00">
        <vehicle id="background.0" x="93.88" y="-1.60" angle="90.00" type="human" speed="13.45" pos="93.88" lane="e0_0" slope="0.00"/>
    </timestep>
    <timestep time="12.50">
        <vehicle id="background.0" x="100.81" y="-1.60" angle="90.00" type="human" speed="13.87" pos="100.81" lane="e0_0" slope="0.00"/>
    </timestep>
    <timestep time="13.00">
        <vehicle id="background.0" x="107.73" y="-1.60" angle="90.00" type="human" speed="13.83" pos="107.73" lane="e0_0" slope="0.00"/>
    </timestep>
    <timestep time="13.50">
        <vehicle id="background.0" x="114.47" y="-1.60" angle="90.00" type="human" speed="13.48" pos="114.47" lane="e0_0" slope="0.00"/>
    </timestep>
    <timestep time="14.00">
        <vehicle id="background.0" x="121.27" y="-1.60" angle="90.00" type="human" speed="13.60" pos="121.27" lane="e0_0" slope="0.00"/>
    </timestep>
    <timestep time="14.50">
        <vehicle id="background.0" x="127.99" y="-1.60" angle="90.00" type="human" speed="13.45" pos="127.99" lane="e0_0" slope="0.00"/>
    </timestep>
    <timestep time="15.00">
        <vehicle id="background.0" x="134.92" y="-1.60" angle="90.00" type="human" speed="13.86" pos="134.92" lane="e0_0" slope="0.00"/>
    </timestep>
    <timestep time="15.50">
        <vehicle id="background.0" x="141.80" y="-1.60" angle="90.00" type="human" speed="13.76" pos="141.80" lane="e0_0" slope="0.00"/>
    </timestep>
    <timestep time="16.00">
        <vehicle id="background.0" x="148.67" y="-1.60" angle="90.00" type="human" speed="13.73" pos="148.67" lane="e0_0" slope="0.00"/>
    </timestep>
    <timestep time="16.50">
        <vehicle id="background.0" x="155.51" y="-1.60" angle="90.00" type="human" speed="13.68" pos="155.51" lane="e0_0" slope="0.00"/>
    </timestep>
    <timestep time="17.00">
        <vehicle id="background.0" x="162.34" y="-1.60" angle="90.00" type="human" speed="13.66" pos="162.34" lane="e0_0" slope="0.00"/>
    </timestep>
    <timestep time="17.50">
        <vehicle id="background.0" x="169.22" y="-1.60" angle="90.00" type="human" speed="13.77" pos="169.22" lane="e0_0" slope="0.00"/>
    </timestep>
    <timestep time="18.00">
        <vehicle id="background.0" x="175.94" y="-1.60" angle="90.00" type="human" speed="13.44" pos="175.94" lane="e0_0" slope="0.00"/>
    </timestep>
    <timestep time="18.50">
        <vehicle id="background.0" x="182.73" y="-1.60" angle="90.00" type="human" speed="13.58" pos="182.73" lane="e0_0" slope="0.00"/>
    </timestep>
    <timestep time="19.00">
        <vehicle id="background.0" x="189.54" y="-1.60" angle="90.00" type="human" speed="13.62" pos="189.54" lane="e0_0" slope="0.00"/>
    </timestep>
    <timestep time="19.50">
        <vehicle id="background.0" x="196.32" y="-1.60" angle="90.00" type="human" speed="13.55" pos="196.32" lane="e0_0" slope="0.00"/>
    </timestep>
    <timestep time="20.00">
        <vehicle id="background.0" x="203.25" y="-1.60" angle="90.00" type="human" speed="13.87" pos="203.25" lane="e0_0" slope="0.00"/>
    </timestep>
    <timestep time="20.50">
        <vehicle id="background.0" x="210.09" y="-1.60" angle="90.00" type="human" speed="13.68" pos="210.09" lane="e0_0" slope="0.00"/>
    </timestep>
    <timestep time="21.00">
        <vehicle id="background.0" x="216.86" y="-1.60" angle="90.00" type="human" speed="13.54" pos="216.86" lane="e0_0" slope="0.00"/>
    </timestep>
    <timestep time="21.50">
        <vehicle id="background.0" x="223.81" y="-1.60" angle="90.00" type="human" speed="13.88" pos="223.81" lane="e0_0" slope="0.00"/>
    </timestep>
    <timestep time="22.00">
        <vehicle id="background.0" x="230.50" y="-1.60" angle="90.00" type="human" speed="13.39" pos="230.50" lane="e0_0" slope="0.00"/>
    </timestep>
    <timestep time="22.50">
        <vehicle id="background.0" x="237.44" y="-1.60" angle="90.00" type="human" speed="13.87" pos="237.44" lane="e0_0" slope="0.00"/>
    </timestep>
    <timestep time="23.00">
        <vehicle id="background.0" x="244.33" y="-1.60" angle="90.00" type="human" speed="13.79" pos="244.33" lane="e0_0" slope="0.00"/>
    </timestep>
    <timestep time="23.50">
        <vehicle id="background.0" x="251.11" y="-1.60" angle="90.00" type="human" speed="13.57" pos="251.11" lane="e0_0" slope="0.00"/>
    </timestep>
    <timestep time="24.00">
        <vehicle id="background.0" x="257.90" y="-1.60" angle="90.00" type="human" speed="13.57" pos="257.90" lane="e0_0" slope="0.00"/>
    </timestep>
    <timestep time="24.50">
        <vehicle id="background.0" x="264.59" y="-1.60" angle="90.00" type="human" speed="13.39" pos="264.59" lane="e0_0" slope="0.00"/>
    </timestep>
    <timestep time="25.00">
        <vehicle id="background.0" x="271.35" y="-1.60" angle="90.00" type="human" speed="13.52" pos="271.35" lane="e0_0" slope="0.00"/>
    </timestep>
    <timestep time="25.50">
        <vehicle id="background.0" x="278.15" y="-1.60" angle="90.00" type="human" speed="13.60" pos="278.15" lane="e0_0" slope="0.00"/>
    </timestep>
    <timestep time="26.00">
        <vehicle id="background.0" x="285.03" y="-1.60" angle="90.00" type="human" speed="13.75" pos="285.03" lane="e0_0" slope="0.00"/>
    </timestep>
    <timestep time="26.50">
        <vehicle id="background.0" x="291.81" y="-1.60" angle="90.00" type="human" speed="13.57" pos="291.81" lane="e0_0" slope="0.00"/>
    </timestep>
    <timestep time="27.00">
        <vehicle id="background.0" x="298.73" y="-1.60" angle="90.00" type="human" speed="13.84" pos="298.73" lane="e0_0" slope="0.00"/>
    </timestep>
    <timestep time="27.50">
        <vehicle id="background.0" x="305.54" y="-1.60" angle="90.00" type="human" speed="13.82" pos="5.54" lane="e1_0" slope="0.00"/>
    </timestep>
    <timestep time="28.00">
        <vehicle id="background.0" x="312.33" y="-1.60" angle="90.00" type="human" speed="13.58" pos="12.33" lane="e1_0" slope="0.00"/>
    </timestep>
    <timestep time="28.50">
        <vehicle id="background.0" x="319.12" y="-1.60" angle="90.00" type="human" speed="13.57" pos="19.12" lane="e1_0" slope="0.00"/>
    </timestep>
    <timestep time="29.00">
        <vehicle id="background.0" x="325.94" y="-1.60" angle="90.00" type="human" speed="13.64" pos="25.94" lane="e1_0" slope="0.00"/>
    </timestep>
    <timestep time="29.50">
        <vehicle id="background.0" x="332.76" y="-1.60" angle="90.00" type="human" speed="13.64" pos="32.76" lane="e1_0" slope="0.00"/>
    </timestep>
    <timestep time="30.00">
        <vehicle id="background.0" x="339.53" y="-1.60" angle="90.00" type="human" speed="13.54" pos="39.53" lane="e1_0" slope="0.00"/>
    </timestep>
    <timestep time="30.50">
        <vehicle id="background.0" x="346.35" y="-1.60" angle="90.00" type="human" speed="13.64" pos="46.35" lane="e1_0" slope="0.00"/>
    </timestep>
    <timestep time="31.00"/>
    <timestep time="31.50"/>
    <timestep time="32.00"/>
    <timestep time="32.50"/>
    <timestep time="33.00"/>
    <timestep time="33.50"/>
    <timestep time="34.00"/>
    <timestep time="34.50"/>
    <timestep time="35.00"/>
    <timestep time="35.50"/>
    <timestep time="36.00"/>
    <timestep time="36.50"/>
    <timestep time="37.00"/>
    <timestep time="37.50"/>
    <timestep time="38.00"/>
    <timestep time="38.50"/>
    <timestep time="39.00"/>
    <timestep time="39.50"/>
    <timestep time="40.00"/>
    <timestep time="40.50"/>
    <timestep time="41.00"/>
    <timestep time="41.50"/>
    <timestep time="42.00"/>
    <timestep time="42.50"/>
    <timestep time="43.00"/>
    <timestep time="43.50"/>
    <timestep time="44.00"/>
    <timestep time="44.50"/>
    <timestep time="45.00"/>
    <timestep time="45.50"/>
    <timestep time="46.00"/>
    <timestep time="46.50"/>
    <timestep time="47.00"/>
    <timestep time="47.50"/>
    <timestep time="48.00"/>
    <timestep time="48.50"/>
    <timestep time="49.00"/>
    <timestep time="49.50"/>
    <timestep time="50.00"/>
    <timestep time="50.50"/>
    <timestep time="51.00"/>
    <timestep time="51.50"/>
    <timestep time="52.00"/>
    <timestep time="52.50"/>
    <timestep time="53.00"/>
    <timestep time="53.50"/>
    <timestep time="54.00"/>
    <timestep time="54.50"/>
    <timestep time="55.00"/>
    <timestep time="55.50"/>
    <timestep time="56.00"/>
    <timestep time="56.50"/>
    <timestep time="57.00"/>
    <timestep time="57.50"/>
    <timestep time="58.00"/>
    <timestep time="58.50">
        <vehicle id="ego" x="5.10" y="-1.60" angle="90.00" type="ego_type" speed="0.00" pos="5.10" lane="e0_0" slope="0.00"/>
    </timestep>
    <timestep time="59.00">
        <vehicle id="ego" x="5.60" y="-1.60" angle="90.00" type="ego_type" speed="1.00" pos="5.60" lane="e0_0" slope="0.00"/>
    </timestep>
    <timestep time="59.50">
        <vehicle id="ego" x="5.60" y="-1.60" angle="90.00" type="ego_type" speed="0.00" pos="5.60" lane="e0_0" slope="0.00"/>
    </timestep>
    <timestep time="60.00">
        <vehicle id="ego" x="6.10" y="-1.60" angle="90.00" type="ego_type" speed="1.00" pos="6.10" lane="e0_0" slope="0.00"/>
    </timestep>
    <timestep time="60.50">
        <vehicle id="ego" x="6.60" y="-1.60" angle="90.00" type="ego_type" speed="1.00" pos="6.60" lane="e0_0" slope="0.00"/>
    </timestep>
    <timestep time="61.00">
        <vehicle id="ego" x="6.72" y="-1.60" angle="90.00" type="ego_type" speed="0.25" pos="6.72" lane="e0_0" slope="0.00"/>
    </timestep>
    <timestep time="61.50">
        <vehicle id="ego" x="7.10" y="-1.60" angle="90.00" type="ego_type" speed="0.75" pos="7.10" lane="e0_0" slope="0.00"/>
    </timestep>
    <timestep time="62.00">
        <vehicle id="ego" x="7.47" y="-1.60" angle="90.00" type="ego_type" speed="0.75" pos="7.47" lane="e0_0" slope="0.00"/>
    </timestep>
    <timestep time="62.50">
        <vehicle id="ego" x="8.35" y="-1.60" angle="90.00" type="ego_type" speed="1.75" pos="8.35" lane="e0_0" slope="0.00"/>
    </timestep>
    <timestep time="63.00">
        <vehicle id="ego" x="8.85" y="-1.60" angle="90.00" type="ego_type" speed="1.00" pos="8.85" lane="e0_0" slope="0.00"/>
    </timestep>
    <timestep time="63.50">
        <vehicle id="ego" x="9.60" y="-1.60" angle="90.00" type="ego_type" speed="1.50" pos="9.60" lane="e0_0" slope="0.00"/>
    </timestep>
    <timestep time="64.00">
        <vehicle id="ego" x="10.60" y="-1.60" angle="90.00" type="ego_type" speed="2.00" pos="10.60" lane="e0_0" slope="0.00"/>
    </timestep>
    <timestep time="64.50">
        <vehicle id="ego" x="11.60" y="-1.60" angle="90.00" type="ego_type" speed="2.00" pos="11.60" lane="e0_0" slope="0.00"/>
    </timestep>
    <timestep time="65.00">
        <vehicle id="ego" x="12.22" y="-1.60" angle="90.00" type="ego_type" speed="1.25" pos="12.22" lane="e0_0" slope="0.00"/>
    </timestep>
    <timestep time="65.50">
        <vehicle id="background.1" x="5.10" y="-1.60" angle="90.00" type="human" speed="0.25" pos="5.10" lane="e0_0" slope="0.00"/>
        <vehicle id="ego" x="12.85" y="-1.60" angle="90.00" type="ego_type" speed="1.25" pos="12.85" lane="e0_0" slope="0.00"/>
    </timestep>
    <timestep time="66.00">
        <vehicle id="background.1" x="5.21" y="-1.60" angle="90.00" type="human" speed="0.23" pos="5.21" lane="e0_0" slope="0.00"/>
        <vehicle id="ego" x="13.97" y="-1.60" angle="90.00" type="ego_type" speed="2.25" pos="13.97" lane="e0_0" slope="0.00"/>
    </timestep>
    <timestep time="66.50">
        <vehicle id="background.1" x="5.80" y="-1.60" angle="90.00" type="human" speed="1.17" pos="5.80" lane="e0_0" slope="0.00"/>
        <vehicle id="ego" x="15.10" y="-1.60" angle="90.00" type="ego_type" speed="2.25" pos="15.10" lane="e0_0" slope="0.00"/>
    </timestep>
    <timestep time="67.00">
        <vehicle id="background.1" x="6.65" y="-1.60" angle="90.00" type="human" speed="1.69" pos="6.65" lane="e0_0" slope="0.00"/>
        <vehicle id="ego" x="16.48" y="-1.60" angle="90.00" type="ego_type" speed="2.75" pos="16.48" lane="e0_0" slope="0.00"/>
    </timestep>
    <timestep time="67.50">
        <vehicle id="background.1" x="7.71" y="-1.60" angle="90.00" type="human" speed="2.13" pos="7.71" lane="e0_0" slope="0.00"/>
        <vehicle id="ego" x="17.10" y="-1.60" angle="90.00" type="ego_type" speed="1.25" pos="17.10" lane="e0_0" slope="0.00"/>
    </timestep>
    <timestep time="68.00">
        <vehicle id="background.1" x="8.48" y="-1.60" angle="90.00" type="human" speed="1.53" pos="8.48" lane="e0_0" slope="0.00"/>
        <vehicle id="ego" x="17.10" y="-1.60" angle="90.00" type="ego_type" speed="0.00" pos="17.10" lane="e0_0" slope="0.00"/>
    </timestep>
    <timestep time="68.50">
        <vehicle id="background.1" x="8.98" y="-1.60" angle="90.00" type="human" speed="1.01" pos="8.98" lane="e0_0" slope="0.00"/>
        <vehicle id="ego" x="17.10" y="-1.60" angle="90.00" type="ego_type" speed="0.00" pos="17.10" lane="e0_0" slope="0.00"/>
    </timestep>
    <timestep time="69.00">
        <vehicle id="background.1" x="9.22" y="-1.60" angle="90.00" type="human" speed="0.48" pos="9.22" lane="e0_0" slope="0.00"/>
        <vehicle id="ego" x="17.10" y="-1.60" angle="90.00" type="ego_type" speed="0.00" pos="17.10" lane="e0_0" slope="0.00"/>
    </timestep>
    <timestep time="69.50">
        <vehicle id="background.1" x="9.38" y="-1.60" angle="90.00" type="human" speed="0.31" pos="9.38" lane="e0_0" slope="0.00"/>
        <vehicle id="ego" x="17.60" y="-1.60" angle="90.00" type="ego_type" speed="1.00" pos="17.60" lane="e0_0" slope="0.00"/>
    </timestep>
    <timestep time="70.00">
        <vehicle id="background.1" x="9.69" y="-1.60" angle="90.00" type="human" speed="0.63" pos="9.69" lane="e0_0" slope="0.00"/>
        <vehicle id="ego" x="18.60" y="-1.60" angle="90.00" type="ego_type" speed="2.00" pos="18.60" lane="e0_0" slope="0.00"/>
    </timestep>
    <timestep time="70.50">
        <vehicle id="background.1" x="10.25" y="-1.60" angle="90.00" type="human" speed="1.13" pos="10.25" lane="e0_0" slope="0.00"/>
        <vehicle id="ego" x="18.85" y="-1.60" angle="90.00" type="ego_type" speed="0.50" pos="18.85" lane="e0_0" slope="0.00"/>
    </timestep>
    <timestep time="71.00">
        <vehicle id="background.1" x="10.79" y="-1.60" angle="90.00" type="human" speed="1.07" pos="10.79" lane="e0_0" slope="0.00"/>
        <vehicle id="ego" x="18.85" y="-1.60" angle="90.00" type="ego_type" speed="0.00" pos="18.85" lane="e0_0" slope="0.00"/>
    </timestep>
    <timestep time="71.50">
        <vehicle id="background.1" x="11.05" y="-1.60" angle="90.00" type="human" speed="0.52" pos="11.05" lane="e0_0" slope="0.00"/>
        <vehicle id="ego" x="19.10" y="-1.60" angle="90.00" type="ego_type" speed="0.50" pos="19.10" lane="e0_0" slope="0.00"/>
    </timestep>
    <timestep time="72.00">
        <vehicle id="background.1" x="11.28" y="-1.60" angle="90.00" type="human" speed="0.46" pos="11.28" lane="e0_0" slope="0.00"/>
        <vehicle id="ego" x="19.85" y="-1.60" angle="90.00" type="ego_type" speed="1.50" pos="19.85" lane="e0_0" slope="0.00"/>
    </timestep>
    <timestep time="72.50">
        <vehicle id="background.1" x="11.70" y="-1.60" angle="90.00" type="human" speed="0.83" pos="11.70" lane="e0_0" slope="0.00"/>
        <vehicle id="ego" x="21.10" y="-1.60" angle="90.00" type="ego_type" speed="2.50" pos="21.10" lane="e0_0" slope="0.00"/>
    </timestep>
    <timestep time="73.00">
        <vehicle id="background.1" x="12.41" y="-1.60" angle="90.00" type="human" speed="1.43" pos="12.41" lane="e0_0" slope="0.00"/>
        <vehicle id="ego" x="22.35" y="-1.60" angle="90.00" type="ego_type" speed="2.50" pos="22.35" lane="e0_0" slope="0.00"/>
    </timestep>
    <timestep time="73.50">
        <vehicle id="background.1" x="13.50" y="-1.60" angle="90.00" type="human" speed="2.18" pos="13.50" lane="e0_0" slope="0.00"/>
        <vehicle id="background.2" x="5.10" y="-1.60" angle="90.00" type="human" speed="0.90" pos="5.10" lane="e0_0" slope="0.00"/>
        <vehicle id="ego" x="23.85" y="-1.60" angle="90.00" type="ego_type" speed="3.00" pos="23.85" lane="e0_0" slope="0.00"/>
    </timestep>
    <timestep time="74.00">
        <vehicle id="background.1" x="14.80" y="-1.60" angle="90.00" type="human" speed="2.61" pos="14.80" lane="e0_0" slope="0.00"/>
        <vehicle id="background.2" x="5.46" y="-1.60" angle="90.00" type="human" speed="0.72" pos="5.46" lane="e0_0" slope="0.00"/>
        <vehicle id="ego" x="24.98" y="-1.60" angle="90.00" type="ego_type" speed="2.25" pos="24.98" lane="e0_0" slope="0.00"/>
    </timestep>
    <timestep time="74.50">
        <vehicle id="background.1" x="15.87" y="-1.60" angle="90.00" type="human" speed="2.14" pos="15.87" lane="e0_0" slope="0.00"/>
        <vehicle id="background.2" x="6.19" y="-1.60" angle="90.00" type="human" speed="1.46" pos="6.19" lane="e0_0" slope="0.00"/>
        <vehicle id="ego" x="25.73" y="-1.60" angle="90.00" type="ego_type" speed="1.50" pos="25.73" lane="e0_0" slope="0.00"/>
    </timestep>
    <timestep time="75.00">
        <vehicle id="background.1" x="16.90" y="-1.60" angle="90.00" type="human" speed="2.06" pos="16.90" lane="e0_0" slope="0.00"/>
        <vehicle id="background.2" x="7.28" y="-1.60" angle="90.00" type="human" speed="2.17" pos="7.28" lane="e0_0" slope="0.00"/>
        <vehicle id="ego" x="25.73" y="-1.60" angle="90.00" type="ego_type" speed="0.00" pos="25.73" lane="e0_0" slope="0.00"/>
    </timestep>
    <timestep time="75.50">
        <vehicle id="background.1" x="17.52" y="-1.60" angle="90.00" type="human" speed="1.24" pos="17.52" lane="e0_0" slope="0.00"/>
        <vehicle id="background.2" x="8.25" y="-1.60" angle="90.00" type="human" speed="1.94" pos="8.25" lane="e0_0" slope="0.00"/>
        <vehicle id="ego" x="25.73" y="-1.60" angle="90.00" type="ego_type" speed="0.00" pos="25.73" lane="e0_0" slope="0.00"/>
    </timestep>
    <timestep time="76.00">
        <vehicle id="background.1" x="17.84" y="-1.60" angle="90.00" type="human" speed="0.62" pos="17.84" lane="e0_0" slope="0.00"/>
        <vehicle id="background.2" x="8.96" y="-1.60" angle="90.00" type="human" speed="1.42" pos="8.96" lane="e0_0" slope="0.00"/>
        <vehicle id="ego" x="26.23" y="-1.60" angle="90.00" type="ego_type" speed="1.00" pos="26.23" lane="e0_0" slope="0.00"/>
    </timestep>
    <timestep time="76.50">
        <vehicle id="background.1" x="18.23" y="-1.60" angle="90.00" type="human" speed="0.79" pos="18.23" lane="e0_0" slope="0.00"/>
        <vehicle id="background.2" x="9.55" y="-1.60" angle="90.00" type="human" speed="1.19" pos="9.55" lane="e0_0" slope="0.00"/>
        <vehicle id="ego" x="26.35" y="-1.60" angle="90.00" type="ego_type" speed="0.25" pos="26.35" lane="e0_0" slope="0.00"/>
    </timestep>
    <timestep time="77.00">
        <vehicle id="background.1" x="18.52" y="-1.60" angle="90.00" type="human" speed="0.58" pos="18.52" lane="e0_0" slope="0.00"/>
        <vehicle id="background.2" x="10.03" y="-1.60" angle="90.00" type="human" speed="0.97" pos="10.03" lane="e0_0" slope="0.00"/>
        <vehicle id="ego" x="26.48" y="-1.60" angle="90.00" type="ego_type" speed="0.25" pos="26.48" lane="e0_0" slope="0.00"/>
    </timestep>
    <timestep time="77.50">
        <vehicle id="background.1" x="18.71" y="-1.60" angle="90.00" type="human" speed="0.38" pos="18.71" lane="e0_0" slope="0.00"/>
        <vehicle id="background.2" x="10.44" y="-1.60" angle="90.00" type="human" speed="0.82" pos="10.44" lane="e0_0" slope="0.00"/>
        <vehicle id="ego" x="27.10" y="-1.60" angle="90.00" type="ego_type" speed="1.25" pos="27.10" lane="e0_0" slope="0.00"/>
    </timestep>
    <timestep time="78.00">
        <vehicle id="background.1" x="19.05" y="-1.60" angle="90.00" type="human" speed="0.69" pos="19.05" lane="e0_0" slope="0.00"/>
        <vehicle id="background.2" x="10.77" y="-1.60" angle="90.00" type="human" speed="0.66" pos="10.77" lane="e0_0" slope="0.00"/>
        <vehicle id="ego" x="28.23" y="-1.60" angle="90.00" type="ego_type" speed="2.25" pos="28.23" lane="e0_0" slope="0.00"/>
    </timestep>
    <timestep time="78.50">
        <vehicle id="background.1" x="19.74" y="-1.60" angle="90.00" type="human" speed="1.37" pos="19.74" lane="e0_0" slope="0.00"/>
        <vehicle id="background.2" x="11.16" y="-1.60" angle="90.00" type="human" speed="0.77" pos="11.16" lane="e0_0" slope="0.00"/>
        <vehicle id="ego" x="29.60" y="-1.60" angle="90.00" type="ego_type" speed="2.75" pos="29.60" lane="e0_0" slope="0.00"/>
    </timestep>
    <timestep time="79.00">
        <vehicle id="background.1" x="20.81" y="-1.60" angle="90.00" type="human" speed="2.15" pos="20.81" lane="e0_0" slope="0.00"/>
        <vehicle id="background.2" x="11.56" y="-1.60" angle="90.00" type="human" speed="0.82" pos="11.56" lane="e0_0" slope="0.00"/>
        <vehicle id="ego" x="30.60" y="-1.60" angle="90.00" type="ego_type" speed="2.00" pos="30.60" lane="e0_0" slope="0.00"/>
    </timestep>
    <timestep time="79.50">
        <vehicle id="background.1" x="21.78" y="-1.60" angle="90.00" type="human" speed="1.94" pos="21.78" lane="e0_0" slope="0.00"/>
        <vehicle id="background.2" x="12.43" y="-1.60" angle="90.00" type="human" speed="1.74" pos="12.43" lane="e0_0" slope="0.00"/>
        <vehicle id="ego" x="30.85" y="-1.60" angle="90.00" type="ego_type" speed="0.50" pos="30.85" lane="e0_0" slope="0.00"/>
    </timestep>
    <timestep time="80.00">
        <vehicle id="background.1" x="22.47" y="-1.60" angle="90.00" type="human" speed="1.37" pos="22.47" lane="e0_0" slope="0.00"/>
        <vehicle id="background.2" x="13.32" y="-1.60" angle="90.00" type="human" speed="1.78" pos="13.32" lane="e0_0" slope="0.00"/>
        <vehicle id="background.3" x="5.10" y="-1.60" angle="90.00" type="human" speed="0.72" pos="5.10" lane="e0_0" slope="0.00"/>
        <vehicle id="ego" x="30.85" y="-1.60" angle="90.00" type="ego_type" speed="0.00" pos="30.85" lane="e0_0" slope="0.00"/>
    </timestep>
    <timestep time="80.50">
        <vehicle id="background.1" x="22.89" y="-1.60" angle="90.00" type="human" speed="0.84" pos="22.89" lane="e0_0" slope="0.00"/>
        <vehicle id="background.2" x="13.98" y="-1.60" angle="90.00" type="human" speed="1.31" pos="13.98" lane="e0_0" slope="0.00"/>
        <vehicle id="background.3" x="5.45" y="-1.60" angle="90.00" type="human" speed="0.70" pos="5.45" lane="e0_0" slope="0.00"/>
        <vehicle id="ego" x="30.85" y="-1.60" angle="90.00" type="ego_type" speed="0.00" pos="30.85" lane="e0_0" slope="0.00"/>
    </timestep>
    <timestep time="81.00">
        <vehicle id="background.1" x="23.09" y="-1.60" angle="90.00" type="human" speed="0.41" pos="23.09" lane="e0_0" slope="0.00"/>
        <vehicle id="background.2" x="14.63" y="-1.60" angle="90.00" type="human" speed="1.30" pos="14.63" lane="e0_0" slope="0.00"/>
        <vehicle id="background.3" x="5.86" y="-1.60" angle="90.00" type="human" speed="0.83" pos="5.86" lane="e0_0" slope="0.00"/>
        <vehicle id="ego" x="30.85" y="-1.60" angle="90.00" type="ego_type" speed="0.00" pos="30.85" lane="e0_0" slope="0.00"/>
    </timestep>
    <timestep time="81.50">
        <vehicle id="background.1" x="23.21" y="-1.60" angle="90.00" type="human" speed="0.23" pos="23.21" lane="e0_0" slope="0.00"/>
        <vehicle id="background.2" x="15.08" y="-1.60" angle="90.00" type="human" speed="0.91" pos="15.08" lane="e0_0" slope="0.00"/>
        <vehicle id="background.3" x="6.44" y="-1.60" angle="90.00" type="human" speed="1.15" pos="6.44" lane="e0_0" slope="0.00"/>
        <vehicle id="ego" x="30.85" y="-1.60" angle="90.00" type="ego_type" speed="0.00" pos="30.85" lane="e0_0" slope="0.00"/>
    </timestep>
    <timestep time="82.00">
        <vehicle id="background.1" x="23.27" y="-1.60" angle="90.00" type="human" speed="0.12" pos="23.27" lane="e0_0" slope="0.00"/>
        <vehicle id="background.2" x="15.39" y="-1.60" angle="90.00" type="human" speed="0.62" pos="15.39" lane="e0_0" slope="0.00"/>
        <vehicle id="background.3" x="7.00" y="-1.60" angle="90.00" type="human" speed="1.12" pos="7.00" lane="e0_0" slope="0.00"/>
        <vehicle id="ego" x="30.85" y="-1.60" angle="90.00" type="ego_type" speed="0.00" pos="30.85" lane="e0_0" slope="0.00"/>
    </timestep>
    <timestep time="82.50">
        <vehicle id="background.1" x="23.30" y="-1.60" angle="90.00" type="human" speed="0.06" pos="23.30" lane="e0_0" slope="0.00"/>
        <vehicle id="background.2" x="15.57" y="-1.60" angle="90.00" type="human" speed="0.36" pos="15.57" lane="e0_0" slope="0.00"/>
        <vehicle id="background.3" x="7.40" y="-1.60" angle="90.00" type="human" speed="0.80" pos="7.40" lane="e0_0" slope="0.00"/>
        <vehicle id="ego" x="31.35" y="-1.60" angle="90.00" type="ego_type" speed="1.00" pos="31.35" lane="e0_0" slope="0.00"/>
    </timestep>
    <timestep time="83.00">
        <vehicle id="background.1" x="23.57" y="-1.60" angle="90.00" type="human" speed="0.54" pos="23.57" lane="e0_0" slope="0.00"/>
        <vehicle id="background.2" x="15.66" y="-1.60" angle="90.00" type="human" speed="0.18" pos="15.66" lane="e0_0" slope="0.00"/>
        <vehicle id="background.3" x="7.66" y="-1.60" angle="90.00" type="human" speed="0.52" pos="7.66" lane="e0_0" slope="0.00"/>
        <vehicle id="ego" x="32.35" y="-1.60" angle="90.00" type="ego_type" speed="2.00" pos="32.35" lane="e0_0" slope="0.00"/>
    </timestep>
    <timestep time="83.50">
        <vehicle id="background.1" x="24.10" y="-1.60" angle="90.00" type="human" speed="1.07" pos="24.10" lane="e0_0" slope="0.00"/>
        <vehicle id="background.2" x="15.84" y="-1.60" angle="90.00" type="human" speed="0.35" pos="15.84" lane="e0_0" slope="0.00"/>
        <vehicle id="background.3" x="7.91" y="-1.60" angle="90.00" type="human" speed="0.48" pos="7.91" lane="e0_0" slope="0.00"/>
        <vehicle id="ego" x="32.60" y="-1.60" angle="90.00" type="ego_type" speed="0.50" pos="32.60" lane="e0_0" slope="0.00"/>
    </timestep>
    <timestep time="84.00">
        <vehicle id="background.1" x="24.52" y="-1.60" angle="90.00" type="human" speed="0.84" pos="24.52" lane="e0_0" slope="0.00"/>