<?xml version="1.0" encoding="UTF-8"?>

<!-- generated on 2026-05-15 22:32:00 by Eclipse SUMO sumo Version 1.24.0
<sumoConfiguration xmlns:xsi="http://www.w3.org/2001/XMLSchema-instance" xsi:noNamespaceSchemaLocation="http://sumo.dlr.de/xsd/sumoConfiguration.xsd">

    <input>
        <net-file value="scenarios/simple_arterial/simple_arterial.net.xml"/>
        <route-files value="scenarios/simple_arterial/simple_arterial.rou.xml"/>
        <additional-files value="scenarios/simple_arterial/simple_arterial.tls.xml"/>
    </input>

    <output>
        <fcd-output value="runs/fcd_random/episode_00006_seed_48.fcd.xml"/>
    </output>

    <time>
        <begin value="0"/>
        <end value="900"/>
        <step-length value="0.5"/>
    </time>

    <report>
        <no-warnings value="true"/>
    </report>

    <traci_server>
        <remote-port value="21507"/>
    </traci_server>

    <random_number>
        <seed value="48"/>
    </random_number>

</sumoConfiguration>
-->

<fcd-export xmlns:xsi="http://www.w3.org/2001/XMLSchema-instance" xsi:noNamespaceSchemaLocation="http://sumo.dlr.de/xsd/fcd_file.xsd">
    <timestep time="0.00">
        <vehicle id="background.0" x="5.10" y="-1.60" angle="90.00" type="human" speed="13.46" pos="5.10" lane="e0_0" slope="0.00"/>
    </timestep>
    <timestep time="0.50">
        <vehicle id="background.0" x="11.76" y="-1.60" angle="90.00" type="human" speed="13.31" pos="11.76" lane="e0_0" slope="0.00"/>
    </timestep>
    <timestep time="1.00">
        <vehicle id="background.0" x="18.37" y="-1.60" angle="90.00" type="human" speed="13.23" pos="18.37" lane="e0_0" slope="0.00"/>
    </timestep>
    <timestep time="1.50">
        <vehicle id="background.0" x="25.04" y="-1.60" angle="90.00" type="human" speed="13.34" pos="25.04" lane="e0_0" slope="0.00"/>
    </timestep>
    <timestep time="2.00">
        <vehicle id="background.0" x="31.58" y="-1.60" angle="90.00" type="human" speed="13.08" pos="31.58" lane="e0_0" slope="0.00"/>
    </timestep>
    <timestep time="2.50">
        <vehicle id="background.0" x="38.08" y="-1.60" angle="90.00" type="human" speed="13.00" pos="38.08" lane="e0_0" slope="0.00"/>
    </timestep>
    <timestep time="3.00">
        <vehicle id="background.0" x="44.76" y="-1.60" angle="90.00" type="human" speed="13.37" pos="44.76" lane="e0_0" slope="0.00"/>
    </timestep>
    <timestep time="3.50">
        <vehicle id="background.0" x="51.27" y="-1.60" angle="90.00" type="human" speed="13.02" pos="51.27" lane="e0_0" slope="0.00"/>
    </timestep>
    <timestep time="4.00">
        <vehicle id="background.0" x="57.81" y="-1.60" angle="90.00" type="human" speed="13.08" pos="57.81" lane="e0_0" slope="0.00"/>
    </timestep>
    <timestep time="4.50">
        <vehicle id="background.0" x="64.38" y="-1.60" angle="90.00" type="human" speed="13.12" pos="64.38" lane="e0_0" slope="0.00"/>
    </timestep>
    <timestep time="5.00">
        <vehicle id="background.0" x="71.03" y="-1.60" angle="90.00" type="human" speed="13.30" pos="71.03" lane="e0_0" slope="0.00"/>
    </timestep>
    <timestep time="5.50">
        <vehicle id="background.0" x="77.62" y="-1.60" angle="90.00" type="human" speed="13.18" pos="77.62" lane="e0_0" slope="0.00"/>
    </timestep>
    <timestep time="6.00">
        <vehicle id="background.0" x="84.34" y="-1.60" angle="90.00" type="human" speed="13.45" pos="84.34" lane="e0_0" slope="0.00"/>
    </timestep>
    <timestep time="6.50">
        <vehicle id="background.0" x="90.94" y="-1.60" angle="90.00" type="human" speed="13.19" pos="90.94" lane="e0_0" slope="0.00"/>
    </timestep>
    <timestep time="7.00">
        <vehicle id="background.0" x="97.48" y="-1.60" angle="90.00" type="human" speed="13.09" pos="97.48" lane="e0_0" slope="0.00"/>
    </timestep>
    <timestep time="7.50">
        <vehicle id="background.0" x="104.16" y="-1.60" angle="90.00" type="human" speed="13.36" pos="104.16" lane="e0_0" slope="0.00"/>
    </timestep>
    <timestep time="8.00">
        <vehicle id="background.0" x="110.85" y="-1.60" angle="90.00" type="human" speed="13.37" pos="110.85" lane="e0_0" slope="0.00"/>
    </timestep>
    <timestep time="8.50">
        <vehicle id="background.0" x="117.39" y="-1.60" angle="90.00" type="human" speed="13.08" pos="117.39" lane="e0_0" slope="0.00"/>
    </timestep>
    <timestep time="9.00">
        <vehicle id="background.0" x="123.91" y="-1.60" angle="90.00" type="human" speed="13.04" pos="123.91" lane="e0_0" slope="0.00"/>
    </timestep>
    <timestep time="9.50">
        <vehicle id="background.0" x="130.42" y="-1.60" angle="90.00" type="human" speed="13.02" pos="130.42" lane="e0_0" slope="0.00"/>
    </timestep>
    <timestep time="10.00">
        <vehicle id="background.0" x="136.92" y="-1.60" angle="90.00" type="human" speed="13.01" pos="136.92" lane="e0_0" slope="0.00"/>
    </timestep>
    <timestep time="10.50">
        <vehicle id="background.0" x="143.47" y="-1.60" angle="90.00" type="human" speed="13.10" pos="143.47" lane="e0_0" slope="0.00"/>
    </timestep>
    <timestep time="11.00">
        <vehicle id="background.0" x="150.03" y="-1.60" angle="90.00" type="human" speed="13.12" pos="150.03" lane="e0_0" slope="0.00"/>
    </timestep>
    <timestep time="11.50">
        <vehicle id="background.0" x="156.64" y="-1.60" angle="90.00" type="human" speed="13.21" pos="156.64" lane="e0_0" slope="0.00"/>
    </timestep>
    <timestep time="12.00">
        <vehicle id="background.0" x="163.29" y="-1.60" angle="90.00" type="human" speed="13.30" pos="163.29" lane="e0_0" slope="0.00"/>
    </timestep>
    <timestep time="12.50">
        <vehicle id="background.0" x="169.91" y="-1.60" angle="90.00" type="human" speed="13.24" pos="169.91" lane="e0_0" slope="0.00"/>
    </timestep>
    <timestep time="13.00">
        <vehicle id="background.0" x="176.64" y="-1.60" angle="90.00" type="human" speed="13.46" pos="176.64" lane="e0_0" slope="0.00"/>
    </timestep>
    <timestep time="13.50">
        <vehicle id="background.0" x="183.17" y="-1.60" angle="90.00" type="human" speed="13.06" pos="183.17" lane="e0_0" slope="0.00"/>
    </timestep>
    <timestep time="14.00">
        <vehicle id="background.0" x="189.82" y="-1.60" angle="90.00" type="human" speed="13.30" pos="189.82" lane="e0_0" slope="0.00"/>
    </timestep>
    <timestep time="14.50">
        <vehicle id="background.0" x="196.34" y="-1.60" angle="90.00" type="human" speed="13.04" pos="196.34" lane="e0_0" slope="0.00"/>
    </timestep>
    <timestep time="15.00">
        <vehicle id="background.0" x="202.97" y="-1.60" angle="90.00" type="human" speed="13.26" pos="202.97" lane="e0_0" slope="0.00"/>
    </timestep>
    <timestep time="15.50">
        <vehicle id="background.0" x="209.65" y="-1.60" angle="90.00" type="human" speed="13.35" pos="209.65" lane="e0_0" slope="0.00"/>
    </timestep>
    <timestep time="16.00">
        <vehicle id="background.0" x="216.33" y="-1.60" angle="90.00" type="human" speed="13.37" pos="216.33" lane="e0_0" slope="0.00"/>
    </timestep>
    <timestep time="16.50">
        <vehicle id="background.0" x="222.82" y="-1.60" angle="90.00" type="human" speed="12.98" pos="222.82" lane="e0_0" slope="0.00"/>
    </timestep>
    <timestep time="17.00">
        <vehicle id="background.0" x="229.46" y="-1.60" angle="90.00" type="human" speed="13.28" pos="229.46" lane="e0_0" slope="0.00"/>
    </timestep>
    <timestep time="17.50">
        <vehicle id="background.0" x="236.18" y="-1.60" angle="90.00" type="human" speed="13.43" pos="236.18" lane="e0_0" slope="0.00"/>
    </timestep>
    <timestep time="18.00">
        <vehicle id="background.0" x="242.88" y="-1.60" angle="90.00" type="human" speed="13.40" pos="242.88" lane="e0_0" slope="0.00"/>
    </timestep>
    <timestep time="18.50">
        <vehicle id="background.0" x="249.54" y="-1.60" angle="90.00" type="human" speed="13.32" pos="249.54" lane="e0_0" slope="0.00"/>
    </timestep>
    <timestep time="19.00">
        <vehicle id="background.0" x="256.11" y="-1.60" angle="90.00" type="human" speed="13.16" pos="256.11" lane="e0_0" slope="0.00"/>
    </timestep>
    <timestep time="19.50">
        <vehicle id="background.0" x="262.77" y="-1.60" angle="90.00" type="human" speed="13.31" pos="262.77" lane="e0_0" slope="0.00"/>
    </timestep>
    <timestep time="20.00">
        <vehicle id="background.0" x="269.27" y="-1.60" angle="90.00" type="human" speed="13.00" pos="269.27" lane="e0_0" slope="0.00"/>
    </timestep>
    <timestep time="20.50">
        <vehicle id="background.0" x="275.83" y="-1.60" angle="90.00" type="human" speed="13.11" pos="275.83" lane="e0_0" slope="0.00"/>
    </timestep>
    <timestep time="21.00">
        <vehicle id="background.0" x="282.43" y="-1.60" angle="90.00" type="human" speed="13.22" pos="282.43" lane="e0_0" slope="0.00"/>
    </timestep>
    <timestep time="21.50">
        <vehicle id="background.0" x="288.99" y="-1.60" angle="90.00" type="human" speed="13.11" pos="288.99" lane="e0_0" slope="0.00"/>
    </timestep>
    <timestep time="22.00">
        <vehicle id="background.0" x="295.56" y="-1.60" angle="90.00" type="human" speed="13.13" pos="295.56" lane="e0_0" slope="0.00"/>
    </timestep>
    <timestep time="22.50">
        <vehicle id="background.0" x="301.95" y="-1.60" angle="90.00" type="human" speed="12.99" pos="1.95" lane="e1_0" slope="0.00"/>
    </timestep>
    <timestep time="23.00">
        <vehicle id="background.0" x="308.56" y="-1.60" angle="90.00" type="human" speed="13.22" pos="8.56" lane="e1_0" slope="0.00"/>
    </timestep>
    <timestep time="23.50">
        <vehicle id="background.0" x="315.26" y="-1.60" angle="90.00" type="human" speed="13.40" pos="15.26" lane="e1_0" slope="0.00"/>
    </timestep>
    <timestep time="24.00">
        <vehicle id="background.0" x="321.93" y="-1.60" angle="90.00" type="human" speed="13.35" pos="21.93" lane="e1_0" slope="0.00"/>
    </timestep>
    <timestep time="24.50">
        <vehicle id="background.0" x="328.65" y="-1.60" angle="90.00" type="human" speed="13.43" pos="28.65" lane="e1_0" slope="0.00"/>
        <vehicle id="background.1" x="5.10" y="-1.60" angle="90.00" type="human" speed="13.89" pos="5.10" lane="e0_0" slope="0.00"/>
    </timestep>
    <timestep time="25.00">
        <vehicle id="background.0" x="335.32" y="-1.60" angle="90.00" type="human" speed="13.34" pos="35.32" lane="e1_0" slope="0.00"/>
        <vehicle id="background.1" x="11.92" y="-1.60" angle="90.00" type="human" speed="13.64" pos="11.92" lane="e0_0" slope="0.00"/>
    </timestep>
    <timestep time="25.50">
        <vehicle id="background.0" x="341.89" y="-1.60" angle="90.00" type="human" speed="13.16" pos="41.89" lane="e1_0" slope="0.00"/>
        <vehicle id="background.1" x="18.71" y="-1.60" angle="90.00" type="human" speed="13.59" pos="18.71" lane="e0_0" slope="0.00"/>
    </timestep>
    <timestep time="26.00">
        <vehicle id="background.0" x="348.53" y="-1.60" angle="90.00" type="human" speed="13.27" pos="48.53" lane="e1_0" slope="0.00"/>
        <vehicle id="background.1" x="25.42" y="-1.60" angle="90.00" type="human" speed="13.41" pos="25.42" lane="e0_0" slope="0.00"/>
    </timestep>
    <timestep time="26.50">
        <vehicle id="background.1" x="32.28" y="-1.60" angle="90.00" type="human" speed="13.71" pos="32.28" lane="e0_0" slope="0.00"/>
    </timestep>
    <timestep time="27.00">
        <vehicle id="background.1" x="39.03" y="-1.60" angle="90.00" type="human" speed="13.51" pos="39.03" lane="e0_0" slope="0.00"/>
    </timestep>
    <timestep time="27.50">
        <vehicle id="background.1" x="45.87" y="-1.60" angle="90.00" type="human" speed="13.68" pos="45.87" lane="e0_0" slope="0.00"/>
    </timestep>
    <timestep time="28.00">
        <vehicle id="background.1" x="52.76" y="-1.60" angle="90.00" type="human" speed="13.77" pos="52.76" lane="e0_0" slope="0.00"/>
    </timestep>
    <timestep time="28.50">
        <vehicle id="background.1" x="59.47" y="-1.60" angle="90.00" type="human" speed="13.44" pos="59.47" lane="e0_0" slope="0.00"/>
    </timestep>
    <timestep time="29.00">
        <vehicle id="background.1" x="66.38" y="-1.60" angle="90.00" type="human" speed="13.82" pos="66.38" lane="e0_0" slope="0.00"/>
    </timestep>
    <timestep time="29.50">
        <vehicle id="background.1" x="73.27" y="-1.60" angle="90.00" type="human" speed="13.76" pos="73.27" lane="e0_0" slope="0.00"/>
    </timestep>
    <timestep time="30.00">
        <vehicle id="background.1" x="80.13" y="-1.60" angle="90.00" type="human" speed="13.72" pos="80.13" lane="e0_0" slope="0.00"/>
    </timestep>
    <timestep time="30.50">
        <vehicle id="background.1" x="87.00" y="-1.60" angle="90.00" type="human" speed="13.74" pos="87.00" lane="e0_0" slope="0.00"/>
    </timestep>
    <timestep time="31.00">
        <vehicle id="background.1" x="93.93" y="-1.60" angle="90.00" type="human" speed="13.87" pos="93.93" lane="e0_0" slope="0.00"/>
    </timestep>
    <timestep time="31.50">
        <vehicle id="background.1" x="100.86" y="-1.60" angle="90.00" type="human" speed="13.85" pos="100.86" lane="e0_0" slope="0.00"/>
    </timestep>
    <timestep time="32.00">
        <vehicle id="background.1" x="107.58" y="-1.60" angle="90.00" type="human" speed="13.44" pos="107.58" lane="e0_0" slope="0.00"/>
    </timestep>
    <timestep time="32.50">
        <vehicle id="background.1" x="114.46" y="-1.60" angle="90.00" type="human" speed="13.76" pos="114.46" lane="e0_0" slope="0.00"/>
    </timestep>
    <timestep time="33.00">
        <vehicle id="background.1" x="121.35" y="-1.60" angle="90.00" type="human" speed="13.79" pos="121.35" lane="e0_0" slope="0.00"/>
    </timestep>
    <timestep time="33.50">
        <vehicle id="background.1" x="128.07" y="-1.60" angle="90.00" type="human" speed="13.43" pos="128.07" lane="e0_0" slope="0.00"/>
    </timestep>
    <timestep time="34.00">
        <vehicle id="background.1" x="134.77" y="-1.60" angle="90.00" type="human" speed="13.40" pos="134.77" lane="e0_0" slope="0.00"/>
    </timestep>
    <timestep time="34.50">
        <vehicle id="background.1" x="141.50" y="-1.60" angle="90.00" type="human" speed="13.47" pos="141.50" lane="e0_0" slope="0.00"/>
    </timestep>
    <timestep time="35.00">
        <vehicle id="background.1" x="148.41" y="-1.60" angle="90.00" type="human" speed="13.81" pos="148.41" lane="e0_0" slope="0.00"/>
        <vehicle id="ego" x="5.10" y="-1.60" angle="90.00" type="ego_type" speed="7.75" pos="5.10" lane="e0_0" slope="0.00"/>
    </timestep>
    <timestep time="35.50">
        <vehicle id="background.1" x="155.19" y="-1.60" angle="90.00" type="human" speed="13.57" pos="155.19" lane="e0_0" slope="0.00"/>
        <vehicle id="ego" x="8.60" y="-1.60" angle="90.00" type="ego_type" speed="7.00" pos="8.60" lane="e0_0" slope="0.00"/>
    </timestep>
    <timestep time="36.00">
        <vehicle id="background.1" x="161.89" y="-1.60" angle="90.00" type="human" speed="13.39" pos="161.89" lane="e0_0" slope="0.00"/>
        <vehicle id="ego" x="12.47" y="-1.60" angle="90.00" type="ego_type" speed="7.75" pos="12.47" lane="e0_0" slope="0.00"/>
    </timestep>
    <timestep time="36.50">
        <vehicle id="background.1" x="168.60" y="-1.60" angle="90.00" type="human" speed="13.42" pos="168.60" lane="e0_0" slope="0.00"/>
        <vehicle id="ego" x="15.59" y="-1.60" angle="90.00" type="ego_type" speed="6.25" pos="15.59" lane="e0_0" slope="0.00"/>
    </timestep>
    <timestep time="37.00">
        <vehicle id="background.1" x="175.33" y="-1.60" angle="90.00" type="human" speed="13.46" pos="175.33" lane="e0_0" slope="0.00"/>
        <vehicle id="ego" x="18.59" y="-1.60" angle="90.00" type="ego_type" speed="6.00" pos="18.59" lane="e0_0" slope="0.00"/>
    </timestep>
    <timestep time="37.50">
        <vehicle id="background.1" x="182.05" y="-1.60" angle="90.00" type="human" speed="13.43" pos="182.05" lane="e0_0" slope="0.00"/>
        <vehicle id="ego" x="21.46" y="-1.60" angle="90.00" type="ego_type" speed="5.75" pos="21.46" lane="e0_0" slope="0.00"/>
    </timestep>
    <timestep time="38.00">
        <vehicle id="background.1" x="188.83" y="-1.60" angle="90.00" type="human" speed="13.56" pos="188.83" lane="e0_0" slope="0.00"/>
        <vehicle id="ego" x="24.84" y="-1.60" angle="90.00" type="ego_type" speed="6.75" pos="24.84" lane="e0_0" slope="0.00"/>
    </timestep>
    <timestep time="38.50">
        <vehicle id="background.1" x="195.67" y="-1.60" angle="90.00" type="human" speed="13.69" pos="195.67" lane="e0_0" slope="0.00"/>
        <vehicle id="ego" x="28.08" y="-1.60" angle="90.00" type="ego_type" speed="6.50" pos="28.08" lane="e0_0" slope="0.00"/>
    </timestep>
    <timestep time="39.00">
        <vehicle id="background.1" x="202.47" y="-1.60" angle="90.00" type="human" speed="13.60" pos="202.47" lane="e0_0" slope="0.00"/>
        <vehicle id="ego" x="31.33" y="-1.60" angle="90.00" type="ego_type" speed="6.50" pos="31.33" lane="e0_0" slope="0.00"/>
    </timestep>
    <timestep time="39.50">
        <vehicle id="background.1" x="209.32" y="-1.60" angle="90.00" type="human" speed="13.70" pos="209.32" lane="e0_0" slope="0.00"/>
        <vehicle id="ego" x="34.70" y="-1.60" angle="90.00" type="ego_type" speed="6.75" pos="34.70" lane="e0_0" slope="0.00"/>
    </timestep>
    <timestep time="40.00">
        <vehicle id="background.1" x="216.15" y="-1.60" angle="90.00" type="human" speed="13.65" pos="216.15" lane="e0_0" slope="0.00"/>
        <vehicle id="ego" x="38.58" y="-1.60" angle="90.00" type="ego_type" speed="7.75" pos="38.58" lane="e0_0" slope="0.00"/>
    </timestep>
    <timestep time="40.50">
        <vehicle id="background.1" x="223.00" y="-1.60" angle="90.00" type="human" speed="13.71" pos="223.00" lane="e0_0" slope="0.00"/>
        <vehicle id="ego" x="42.57" y="-1.60" angle="90.00" type="ego_type" speed="8.00" pos="42.57" lane="e0_0" slope="0.00"/>
    </timestep>
    <timestep time="41.00">
        <vehicle id="background.1" x="229.90" y="-1.60" angle="90.00" type="human" speed="13.81" pos="229.90" lane="e0_0" slope="0.00"/>
        <vehicle id="ego" x="46.95" y="-1.60" angle="90.00" type="ego_type" speed="8.75" pos="46.95" lane="e0_0" slope="0.00"/>
    </timestep>
    <timestep time="41.50">
        <vehicle id="background.1" x="236.63" y="-1.60" angle="90.00" type="human" speed="13.44" pos="236.63" lane="e0_0" slope="0.00"/>
        <vehicle id="ego" x="51.69" y="-1.60" angle="90.00" type="ego_type" speed="9.50" pos="51.69" lane="e0_0" slope="0.00"/>
    </timestep>
    <timestep time="42.00">
        <vehicle id="background.1" x="243.44" y="-1.60" angle="90.00" type="human" speed="13.62" pos="243.44" lane="e0_0" slope="0.00"/>
        <vehicle id="ego" x="56.19" y="-1.60" angle="90.00" type="ego_type" speed="9.00" pos="56.19" lane="e0_0" slope="0.00"/>
    </timestep>
    <timestep time="42.50">
        <vehicle id="background.1" x="250.17" y="-1.60" angle="90.00" type="human" speed="13.48" pos="250.17" lane="e0_0" slope="0.00"/>
        <vehicle id="ego" x="60.06" y="-1.60" angle="90.00" type="ego_type" speed="7.75" pos="60.06" lane="e0_0" slope="0.00"/>
    </timestep>
    <timestep time="43.00">
        <vehicle id="background.1" x="256.98" y="-1.60" angle="90.00" type="human" speed="13.61" pos="256.98" lane="e0_0" slope="0.00"/>
        <vehicle id="ego" x="63.31" y="-1.60" angle="90.00" type="ego_type" speed="6.50" pos="63.31" lane="e0_0" slope="0.00"/>
    </timestep>
    <timestep time="43.50">
        <vehicle id="background.1" x="263.92" y="-1.60" angle="90.00" type="human" speed="13.89" pos="263.92" lane="e0_0" slope="0.00"/>
        <vehicle id="ego" x="66.31" y="-1.60" angle="90.00" type="ego_type" speed="6.00" pos="66.31" lane="e0_0" slope="0.00"/>
    </timestep>
    <timestep time="44.00">
        <vehicle id="background.1" x="270.71" y="-1.60" angle="90.00" type="human" speed="13.58" pos="270.71" lane="e0_0" slope="0.00"/>
        <vehicle id="ego" x="68.81" y="-1.60" angle="90.00" type="ego_type" speed="5.00" pos="68.81" lane="e0_0" slope="0.00"/>
    </timestep>
    <timestep time="44.50">
        <vehicle id="background.1" x="277.46" y="-1.60" angle="90.00" type="human" speed="13.51" pos="277.46" lane="e0_0" slope="0.00"/>
        <vehicle id="ego" x="71.80" y="-1.60" angle="90.00" type="ego_type" speed="6.00" pos="71.80" lane="e0_0" slope="0.00"/>
    </timestep>
    <timestep time="45.00">
        <vehicle id="background.1" x="282.94" y="-1.60" angle="90.00" type="human" speed="10.97" pos="282.94" lane="e0_0" slope="0.00"/>
        <vehicle id="ego" x="74.30" y="-1.60" angle="90.00" type="ego_type" speed="5.00" pos="74.30" lane="e0_0" slope="0.00"/>
    </timestep>
    <timestep time="45.50">
        <vehicle id="background.1" x="287.49" y="-1.60" angle="90.00" type="human" speed="9.09" pos="287.49" lane="e0_0" slope="0.00"/>
        <vehicle id="ego" x="76.92" y="-1.60" angle="90.00" type="ego_type" speed="5.25" pos="76.92" lane="e0_0" slope="0.00"/>
    </timestep>
    <timestep time="46.00">
        <vehicle id="background.1" x="291.28" y="-1.60" angle="90.00" type="human" speed="7.59" pos="291.28" lane="e0_0" slope="0.00"/>
        <vehicle id="ego" x="78.80" y="-1.60" angle="90.00" type="ego_type" speed="3.75" pos="78.80" lane="e0_0" slope="0.00"/>
    </timestep>
    <timestep time="46.50">
        <vehicle id="background.1" x="294.32" y="-1.60" angle="90.00" type="human" speed="6.09" pos="294.32" lane="e0_0" slope="0.00"/>
        <vehicle id="ego" x="79.92" y="-1.60" angle="90.00" type="ego_type" speed="2.25" pos="79.92" lane="e0_0" slope="0.00"/>
    </timestep>
    <timestep time="47.00">
        <vehicle id="background.1" x="296.62" y="-1.60" angle="90.00" type="human" speed="4.59" pos="296.62" lane="e0_0" slope="0.00"/>
        <vehicle id="ego" x="80.42" y="-1.60" angle="90.00" type="ego_type" speed="1.00" pos="80.42" lane="e0_0" slope="0.00"/>
    </timestep>
    <timestep time="47.50">
        <vehicle id="background.1" x="298.16" y="-1.60" angle="90.00" type="human" speed="3.09" pos="298.16" lane="e0_0" slope="0.00"/>
        <vehicle id="ego" x="80.66" y="-1.60" angle="90.00" type="ego_type" speed="0.50" pos="80.66" lane="e0_0" slope="0.00"/>
    </timestep>
    <timestep time="48.00">
        <vehicle id="background.1" x="298.96" y="-1.60" angle="90.00" type="human" speed="1.59" pos="298.96" lane="e0_0" slope="0.00"/>
        <vehicle id="ego" x="81.29" y="-1.60" angle="90.00" type="ego_type" speed="1.25" pos="81.29" lane="e0_0" slope="0.00"/>
    </timestep>
    <timestep time="48.50">
        <vehicle id="background.1" x="299.00" y="-1.60" angle="90.00" type="human" speed="0.09" pos="299.00" lane="e0_0" slope="0.00"/>
        <vehicle id="ego" x="82.03" y="-1.60" angle="90.00" type="ego_type" speed="1.50" pos="82.03" lane="e0_0" slope="0.00"/>
    </timestep>
    <timestep time="49.00">
        <vehicle id="background.1" x="299.00" y="-1.60" angle="90.00" type="human" speed="0.00" pos="299.00" lane="e0_0" slope="0.00"/>
        <vehicle id="ego" x="82.41" y="-1.60" angle="90.00" type="ego_type" speed="0.75" pos="82.41" lane="e0_0" slope="0.00"/>
    </timestep>
    <timestep time="49.50">
        <vehicle id="background.1" x="299.00" y="-1.60" angle="90.00" type="human" speed="0.00" pos="299.00" lane="e0_0" slope="0.00"/>
        <vehicle id="ego" x="83.15" y="-1.60" angle="90.00" type="ego_type" speed="1.50" pos="83.15" lane="e0_0" slope="0.00"/>
    </timestep>
    <timestep time="50.00">
        <vehicle id="background.1" x="299.00" y="-1.60" angle="90.00" type="human" speed="0.00" pos="299.00" lane="e0_0" slope="0.00"/>
        <vehicle id="ego" x="84.03" y="-1.60" angle="90.00" type="ego_type" speed="1.75" pos="84.03" lane="e0_0" slope="0.00"/>
    </timestep>
    <timestep time="50.50">
        <vehicle id="background.1" x="299.00" y="-1.60" angle="90.00" type="human" speed="0.00" pos="299.00" lane="e0_0" slope="0.00"/>
        <vehicle id="ego" x="84.27" y="-1.60" angle="90.00" type="ego_type" speed="0.50" pos="84.27" lane="e0_0" slope="0.00"/>
    </timestep>
    <timestep time="51.00">
        <vehicle id="background.1" x="299.00" y="-1.60" angle="90.00" type="human" speed="0.00" pos="299.00" lane="e0_0" slope="0.00"/>
        <vehicle id="ego" x="84.52" y="-1.60" angle="90.00" type="ego_type" speed="0.50" pos="84.52" lane="e0_0" slope="0.00"/>
    </timestep>
    <timestep time="51.50">
        <vehicle id="background.1" x="299.00" y="-1.60" angle="90.00" type="human" speed="0.00" pos="299.00" lane="e0_0" slope="0.00"/>
        <vehicle id="ego" x="84.77" y="-1.60" angle="90.00" type="ego_type" speed="0.50" pos="84.77" lane="e0_0" slope="0.00"/>
    </timestep>
    <timestep time="52.00">
        <vehicle id="background.1" x="299.00" y="-1.60" angle="90.00" type="human" speed="0.00" pos="299.00" lane="e0_0" slope="0.00"/>
        <vehicle id="ego" x="85.27" y="-1.60" angle="90.00" type="ego_type" speed="1.00" pos="85.27" lane="e0_0" slope="0.00"/>
    </timestep>
    <timestep time="52.50">
        <vehicle id="background.1" x="299.00" y="-1.60" angle="90.00" type="human" speed="0.00" pos="299.00" lane="e0_0" slope="0.00"/>
        <vehicle id="ego" x="86.26" y="-1.60" angle="90.00" type="ego_type" speed="2.00" pos="86.26" lane="e0_0" slope="0.00"/>
    </timestep>
    <timestep time="53.00">
        <vehicle id="background.1" x="299.00" y="-1.60" angle="90.00" type="human" speed="0.00" pos="299.00" lane="e0_0" slope="0.00"/>
        <vehicle id="ego" x="86.51" y="-1.60" angle="90.00" type="ego_type" speed="0.50" pos="86.51" lane="e0_0" slope="0.00"/>
    </timestep>
    <timestep time="53.50">
        <vehicle id="background.1" x="299.00" y="-1.60" angle="90.00" type="human" speed="0.00" pos="299.00" lane="e0_0" slope="0.00"/>
        <vehicle id="ego" x="86.88" y="-1.60" angle="90.00" type="ego_type" speed="0.75" pos="86.88" lane="e0_0" slope="0.00"/>
    </timestep>
    <timestep time="54.00">
        <vehicle id="background.1" x="299.00" y="-1.60" angle="90.00" type="human" speed="0.00" pos="299.00" lane="e0_0" slope="0.00"/>
        <vehicle id="ego" x="87.38" y="-1.60" angle="90.00" type="ego_type" speed="1.00" pos="87.38" lane="e0_0" slope="0.00"/>
    </timestep>
    <timestep time="54.50">
        <vehicle id="background.1" x="299.00" y="-1.60" angle="90.00" type="human" speed="0.00" pos="299.00" lane="e0_0" slope="0.00"/>
        <vehicle id="ego" x="88.38" y="-1.60" angle="90.00" type="ego_type" speed="2.00" pos="88.38" lane="e0_0" slope="0.00"/>
    </timestep>
    <timestep time="55.00">
        <vehicle id="background.1" x="299.00" y="-1.60" angle="90.00" type="human" speed="0.00" pos="299.00" lane="e0_0" slope="0.00"/>
        <vehicle id="ego" x="89.38" y="-1.60" angle="90.00" type="ego_type" speed="2.00" pos="89.38" lane="e0_0" slope="0.00"/>
    </timestep>
    <timestep time="55.50">
        <vehicle id="background.1" x="299.00" y="-1.60" angle="90.00" type="human" speed="0.00" pos="299.00" lane="e0_0" slope="0.00"/>
        <vehicle id="ego" x="90.50" y="-1.60" angle="90.00" type="ego_type" speed="2.25" pos="90.50" lane="e0_0" slope="0.00"/>
    </timestep>
    <timestep time="56.00">
        <vehicle id="background.1" x="299.00" y="-1.60" angle="90.00" type="human" speed="0.00" pos="299.00" lane="e0_0" slope="0.00"/>
        <vehicle id="ego" x="91.87" y="-1.60" angle="90.00" type="ego_type" speed="2.75" pos="91.87" lane="e0_0" slope="0.00"/>
    </timestep>
    <timestep time="56.50">
        <vehicle id="background.1" x="299.00" y="-1.60" angle="90.00" type="human" speed="0.00" pos="299.00" lane="e0_0" slope="0.00"/>
        <vehicle id="ego" x="92.87" y="-1.60" angle="90.00" type="ego_type" speed="2.00" pos="92.87" lane="e0_0" slope="0.00"/>
    </timestep>
    <timestep time="57.00">
        <vehicle id="background.1" x="299.00" y="-1.60" angle="90.00" type="human" speed="0.00" pos="299.00" lane="e0_0" slope="0.00"/>
        <vehicle id="ego" x="93.99" y="-1.60" angle="90.00" type="ego_type" speed="2.25" pos="93.99" lane="e0_0" slope="0.00"/>
    </timestep>
    <timestep time="57.50">
        <vehicle id="background.1" x="299.00" y="-1.60" angle="90.00" type="human" speed="0.00" pos="299.00" lane="e0_0" slope="0.00"/>
        <vehicle id="ego" x="95.36" y="-1.60" angle="90.00" type="ego_type" speed="2.75" pos="95.36" lane="e0_0" slope="0.00"/>
    </timestep>
    <timestep time="58.00">
        <vehicle id="background.1" x="299.00" y="-1.60" angle="90.00" type="human" speed="0.00" pos="299.00" lane="e0_0" slope="0.00"/>
        <vehicle id="ego" x="96.24" y="-1.60" angle="90.00" type="ego_type" speed="1.75" pos="96.24" lane="e0_0" slope="0.00"/>
    </timestep>
    <timestep time="58.50">
        <vehicle id="background.1" x="299.00" y="-1.60" angle="90.00" type="human" speed="0.00" pos="299.00" lane="e0_0" slope="0.00"/>
        <vehicle id="ego" x="96.36" y="-1.60" angle="90.00" type="ego_type" speed="0.25" pos="96.36" lane="e0_0" slope="0.00"/>
    </timestep>
    <timestep time="59.00">
        <vehicle id="background.1" x="299.00" y="-1.60" angle="90.00" type="human" speed="0.00" pos="299.00" lane="e0_0" slope="0.00"/>
        <vehicle id="ego" x="96.73" y="-1.60" angle="90.00" type="ego_type" speed="0.75" pos="96.73" lane="e0_0" slope="0.00"/>
    </timestep>
    <timestep time="59.50">
        <vehicle id="background.1" x="299.00" y="-1.60" angle="90.00" type="human" speed="0.00" pos="299.00" lane="e0_0" slope="0.00"/>
        <vehicle id="ego" x="97.35" y="-1.60" angle="90.00" type="ego_type" speed="1.25" pos="97.35" lane="e0_0" slope="0.00"/>
    </timestep>
    <timestep time="60.00">
        <vehicle id="background.1" x="299.00" y="-1.60" angle="90.00" type="human" speed="0.00" pos="299.00" lane="e0_0" slope="0.00"/>
        <vehicle id="ego" x="97.60" y="-1.60" angle="90.00" type="ego_type" speed="0.50" pos="97.60" lane="e0_0" slope="0.00"/>
    </timestep>