<?xml version="1.0" encoding="UTF-8"?>

<!-- generated on 2026-05-13 21:24:37 by Eclipse SUMO sumo Version 1.24.0
<sumoConfiguration xmlns:xsi="http://www.w3.org/2001/XMLSchema-instance" xsi:noNamespaceSchemaLocation="http://sumo.dlr.de/xsd/sumoConfiguration.xsd">

    <input>
        <net-file value="scenarios/simple_arterial/simple_arterial.net.xml"/>
        <route-files value="scenarios/simple_arterial/simple_arterial.rou.xml"/>
        <additional-files value="scenarios/simple_arterial/simple_arterial.tls.xml"/>
    </input>

    <output>
        <fcd-output value="runs/fcd_random/episode_00003_seed_103.fcd.xml"/>
    </output>

    <time>
        <begin value="0"/>
        <end value="900"/>
        <step-length value="0.5"/>
    </time>

    <report>
        <no-warnings value="true"/>
    </report>

    <traci_server>
        <remote-port value="30543"/>
    </traci_server>

    <random_number>
        <seed value="103"/>
    </random_number>

</sumoConfiguration>
-->

<fcd-export xmlns:xsi="http://www.w3.org/2001/XMLSchema-instance" xsi:noNamespaceSchemaLocation="http://sumo.dlr.de/xsd/fcd_file.xsd">
    <timestep time="0.00"/>
    <timestep time="0.50"/>
    <timestep time="1.00"/>
    <timestep time="1.50"/>
    <timestep time="2.00"/>
    <timestep time="2.50"/>
    <timestep time="3.00"/>
    <timestep time="3.50"/>
    <timestep time="4.00"/>
    <timestep time="4.50"/>
    <timestep time="5.00"/>
    <timestep time="5.50"/>
    <timestep time="6.00"/>
    <timestep time="6.50"/>
    <timestep time="7.00"/>
    <timestep time="7.50"/>
    <timestep time="8.00"/>
    <timestep time="8.50"/>
    <timestep time="9.00"/>
    <timestep time="9.50"/>
    <timestep time="10.00"/>
    <timestep time="10.50"/>
    <timestep time="11.00"/>
    <timestep time="11.50"/>
    <timestep time="12.00"/>
    <timestep time="12.50"/>
    <timestep time="13.00"/>
    <timestep time="13.50"/>
    <timestep time="14.00"/>
    <timestep time="14.50"/>
    <timestep time="15.00">
        <vehicle id="background.0" x="5.10" y="-1.60" angle="90.00" type="human" speed="13.26" pos="5.10" lane="e0_0" slope="0.00"/>
    </timestep>
    <timestep time="15.50">
        <vehicle id="background.0" x="11.69" y="-1.60" angle="90.00" type="human" speed="13.19" pos="11.69" lane="e0_0" slope="0.00"/>
    </timestep>
    <timestep time="16.00">
        <vehicle id="background.0" x="18.30" y="-1.60" angle="90.00" type="human" speed="13.20" pos="18.30" lane="e0_0" slope="0.00"/>
    </timestep>
    <timestep time="16.50">
        <vehicle id="background.0" x="24.87" y="-1.60" angle="90.00" type="human" speed="13.15" pos="24.87" lane="e0_0" slope="0.00"/>
    </timestep>
    <timestep time="17.00">
        <vehicle id="background.0" x="31.31" y="-1.60" angle="90.00" type="human" speed="12.87" pos="31.31" lane="e0_0" slope="0.00"/>
    </timestep>
    <timestep time="17.50">
        <vehicle id="background.0" x="37.74" y="-1.60" angle="90.00" type="human" speed="12.86" pos="37.74" lane="e0_0" slope="0.00"/>
    </timestep>
    <timestep time="18.00">
        <vehicle id="background.0" x="44.26" y="-1.60" angle="90.00" type="human" speed="13.05" pos="44.26" lane="e0_0" slope="0.00"/>
    </timestep>
    <timestep time="18.50">
        <vehicle id="background.0" x="50.82" y="-1.60" angle="90.00" type="human" speed="13.11" pos="50.82" lane="e0_0" slope="0.00"/>
    </timestep>
    <timestep time="19.00">
        <vehicle id="background.0" x="57.35" y="-1.60" angle="90.00" type="human" speed="13.07" pos="57.35" lane="e0_0" slope="0.00"/>
    </timestep>
    <timestep time="19.50">
        <vehicle id="background.0" x="63.94" y="-1.60" angle="90.00" type="human" speed="13.17" pos="63.94" lane="e0_0" slope="0.00"/>
    </timestep>
    <timestep time="20.00">
        <vehicle id="background.0" x="70.32" y="-1.60" angle="90.00" type="human" speed="12.76" pos="70.32" lane="e0_0" slope="0.00"/>
    </timestep>
    <timestep time="20.50">
        <vehicle id="background.0" x="76.76" y="-1.60" angle="90.00" type="human" speed="12.88" pos="76.76" lane="e0_0" slope="0.00"/>
    </timestep>
    <timestep time="21.00">
        <vehicle id="background.0" x="83.37" y="-1.60" angle="90.00" type="human" speed="13.22" pos="83.37" lane="e0_0" slope="0.00"/>
    </timestep>
    <timestep time="21.50">
        <vehicle id="background.0" x="89.90" y="-1.60" angle="90.00" type="human" speed="13.06" pos="89.90" lane="e0_0" slope="0.00"/>
    </timestep>
    <timestep time="22.00">
        <vehicle id="background.0" x="96.38" y="-1.60" angle="90.00" type="human" speed="12.97" pos="96.38" lane="e0_0" slope="0.00"/>
    </timestep>
    <timestep time="22.50">
        <vehicle id="background.0" x="102.76" y="-1.60" angle="90.00" type="human" speed="12.77" pos="102.76" lane="e0_0" slope="0.00"/>
    </timestep>
    <timestep time="23.00">
        <vehicle id="background.0" x="109.29" y="-1.60" angle="90.00" type="human" speed="13.07" pos="109.29" lane="e0_0" slope="0.00"/>
    </timestep>
    <timestep time="23.50">
        <vehicle id="background.0" x="115.80" y="-1.60" angle="90.00" type="human" speed="13.02" pos="115.80" lane="e0_0" slope="0.00"/>
    </timestep>
    <timestep time="24.00">
        <vehicle id="background.0" x="122.22" y="-1.60" angle="90.00" type="human" speed="12.84" pos="122.22" lane="e0_0" slope="0.00"/>
    </timestep>
    <timestep time="24.50">
        <vehicle id="background.0" x="128.69" y="-1.60" angle="90.00" type="human" speed="12.94" pos="128.69" lane="e0_0" slope="0.00"/>
    </timestep>
    <timestep time="25.00">
        <vehicle id="background.0" x="135.28" y="-1.60" angle="90.00" type="human" speed="13.17" pos="135.28" lane="e0_0" slope="0.00"/>
    </timestep>
    <timestep time="25.50">
        <vehicle id="background.0" x="141.76" y="-1.60" angle="90.00" type="human" speed="12.96" pos="141.76" lane="e0_0" slope="0.00"/>
    </timestep>
    <timestep time="26.00">
        <vehicle id="background.0" x="148.37" y="-1.60" angle="90.00" type="human" speed="13.23" pos="148.37" lane="e0_0" slope="0.00"/>
    </timestep>
    <timestep time="26.50">
        <vehicle id="background.0" x="155.00" y="-1.60" angle="90.00" type="human" speed="13.25" pos="155.00" lane="e0_0" slope="0.00"/>
    </timestep>
    <timestep time="27.00">
        <vehicle id="background.0" x="161.57" y="-1.60" angle="90.00" type="human" speed="13.14" pos="161.57" lane="e0_0" slope="0.00"/>
    </timestep>
    <timestep time="27.50">
        <vehicle id="background.0" x="168.12" y="-1.60" angle="90.00" type="human" speed="13.10" pos="168.12" lane="e0_0" slope="0.00"/>
    </timestep>
    <timestep time="28.00">
        <vehicle id="background.0" x="174.64" y="-1.60" angle="90.00" type="human" speed="13.05" pos="174.64" lane="e0_0" slope="0.00"/>
    </timestep>
    <timestep time="28.50">
        <vehicle id="background.0" x="181.07" y="-1.60" angle="90.00" type="human" speed="12.85" pos="181.07" lane="e0_0" slope="0.00"/>
        <vehicle id="ego" x="5.10" y="-1.60" angle="90.00" type="ego_type" speed="0.00" pos="5.10" lane="e0_0" slope="0.00"/>
    </timestep>
    <timestep time="29.00">
        <vehicle id="background.0" x="187.46" y="-1.60" angle="90.00" type="human" speed="12.78" pos="187.46" lane="e0_0" slope="0.00"/>
        <vehicle id="ego" x="5.10" y="-1.60" angle="90.00" type="ego_type" speed="0.00" pos="5.10" lane="e0_0" slope="0.00"/>
    </timestep>
    <timestep time="29.50">
        <vehicle id="background.0" x="194.09" y="-1.60" angle="90.00" type="human" speed="13.26" pos="194.09" lane="e0_0" slope="0.00"/>
        <vehicle id="ego" x="5.10" y="-1.60" angle="90.00" type="ego_type" speed="0.00" pos="5.10" lane="e0_0" slope="0.00"/>
    </timestep>
    <timestep time="30.00">
        <vehicle id="background.0" x="200.54" y="-1.60" angle="90.00" type="human" speed="12.90" pos="200.54" lane="e0_0" slope="0.00"/>
        <vehicle id="ego" x="5.35" y="-1.60" angle="90.00" type="ego_type" speed="0.50" pos="5.35" lane="e0_0" slope="0.00"/>
    </timestep>
    <timestep time="30.50">
        <vehicle id="background.0" x="207.02" y="-1.60" angle="90.00" type="human" speed="12.97" pos="207.02" lane="e0_0" slope="0.00"/>
        <vehicle id="ego" x="5.85" y="-1.60" angle="90.00" type="ego_type" speed="1.00" pos="5.85" lane="e0_0" slope="0.00"/>
    </timestep>
    <timestep time="31.00">
        <vehicle id="background.0" x="213.59" y="-1.60" angle="90.00" type="human" speed="13.14" pos="213.59" lane="e0_0" slope="0.00"/>
        <vehicle id="ego" x="6.35" y="-1.60" angle="90.00" type="ego_type" speed="1.00" pos="6.35" lane="e0_0" slope="0.00"/>
    </timestep>
    <timestep time="31.50">
        <vehicle id="background.0" x="220.16" y="-1.60" angle="90.00" type="human" speed="13.12" pos="220.16" lane="e0_0" slope="0.00"/>
        <vehicle id="ego" x="7.35" y="-1.60" angle="90.00" type="ego_type" speed="2.00" pos="7.35" lane="e0_0" slope="0.00"/>
    </timestep>
    <timestep time="32.00">
        <vehicle id="background.0" x="226.66" y="-1.60" angle="90.00" type="human" speed="13.01" pos="226.66" lane="e0_0" slope="0.00"/>
        <vehicle id="ego" x="8.85" y="-1.60" angle="90.00" type="ego_type" speed="3.00" pos="8.85" lane="e0_0" slope="0.00"/>
    </timestep>
    <timestep time="32.50">
        <vehicle id="background.0" x="233.27" y="-1.60" angle="90.00" type="human" speed="13.23" pos="233.27" lane="e0_0" slope="0.00"/>
        <vehicle id="ego" x="10.60" y="-1.60" angle="90.00" type="ego_type" speed="3.50" pos="10.60" lane="e0_0" slope="0.00"/>
    </timestep>
    <timestep time="33.00">
        <vehicle id="background.0" x="239.86" y="-1.60" angle="90.00" type="human" speed="13.18" pos="239.86" lane="e0_0" slope="0.00"/>
        <vehicle id="ego" x="11.60" y="-1.60" angle="90.00" type="ego_type" speed="2.00" pos="11.60" lane="e0_0" slope="0.00"/>
    </timestep>
    <timestep time="33.50">
        <vehicle id="background.0" x="246.46" y="-1.60" angle="90.00" type="human" speed="13.20" pos="246.46" lane="e0_0" slope="0.00"/>
        <vehicle id="ego" x="11.85" y="-1.60" angle="90.00" type="ego_type" speed="0.50" pos="11.85" lane="e0_0" slope="0.00"/>
    </timestep>
    <timestep time="34.00">
        <vehicle id="background.0" x="252.99" y="-1.60" angle="90.00" type="human" speed="13.06" pos="252.99" lane="e0_0" slope="0.00"/>
        <vehicle id="ego" x="11.85" y="-1.60" angle="90.00" type="ego_type" speed="0.00" pos="11.85" lane="e0_0" slope="0.00"/>
    </timestep>
    <timestep time="34.50">
        <vehicle id="background.0" x="259.58" y="-1.60" angle="90.00" type="human" speed="13.18" pos="259.58" lane="e0_0" slope="0.00"/>
        <vehicle id="ego" x="12.10" y="-1.60" angle="90.00" type="ego_type" speed="0.50" pos="12.10" lane="e0_0" slope="0.00"/>
    </timestep>
    <timestep time="35.00">
        <vehicle id="background.0" x="266.18" y="-1.60" angle="90.00" type="human" speed="13.20" pos="266.18" lane="e0_0" slope="0.00"/>
        <vehicle id="background.1" x="5.10" y="-1.60" angle="90.00" type="human" speed="0.25" pos="5.10" lane="e0_0" slope="0.00"/>
        <vehicle id="ego" x="12.85" y="-1.60" angle="90.00" type="ego_type" speed="1.50" pos="12.85" lane="e0_0" slope="0.00"/>
    </timestep>
    <timestep time="35.50">
        <vehicle id="background.0" x="272.66" y="-1.60" angle="90.00" type="human" speed="12.97" pos="272.66" lane="e0_0" slope="0.00"/>
        <vehicle id="background.1" x="5.22" y="-1.60" angle="90.00" type="human" speed="0.24" pos="5.22" lane="e0_0" slope="0.00"/>
        <vehicle id="ego" x="13.85" y="-1.60" angle="90.00" type="ego_type" speed="2.00" pos="13.85" lane="e0_0" slope="0.00"/>
    </timestep>
    <timestep time="36.00">
        <vehicle id="background.0" x="279.24" y="-1.60" angle="90.00" type="human" speed="13.16" pos="279.24" lane="e0_0" slope="0.00"/>
        <vehicle id="background.1" x="5.76" y="-1.60" angle="90.00" type="human" speed="1.07" pos="5.76" lane="e0_0" slope="0.00"/>
        <vehicle id="ego" x="15.10" y="-1.60" angle="90.00" type="ego_type" speed="2.50" pos="15.10" lane="e0_0" slope="0.00"/>
    </timestep>
    <timestep time="36.50">
        <vehicle id="background.0" x="285.81" y="-1.60" angle="90.00" type="human" speed="13.13" pos="285.81" lane="e0_0" slope="0.00"/>
        <vehicle id="background.1" x="6.69" y="-1.60" angle="90.00" type="human" speed="1.87" pos="6.69" lane="e0_0" slope="0.00"/>
        <vehicle id="ego" x="15.60" y="-1.60" angle="90.00" type="ego_type" speed="1.00" pos="15.60" lane="e0_0" slope="0.00"/>
    </timestep>
    <timestep time="37.00">
        <vehicle id="background.0" x="292.41" y="-1.60" angle="90.00" type="human" speed="13.21" pos="292.41" lane="e0_0" slope="0.00"/>
        <vehicle id="background.1" x="7.39" y="-1.60" angle="90.00" type="human" speed="1.40" pos="7.39" lane="e0_0" slope="0.00"/>
        <vehicle id="ego" x="15.60" y="-1.60" angle="90.00" type="ego_type" speed="0.00" pos="15.60" lane="e0_0" slope="0.00"/>
    </timestep>
    <timestep time="37.50">
        <vehicle id="background.0" x="299.00" y="-1.60" angle="90.00" type="human" speed="13.18" pos="299.00" lane="e0_0" slope="0.00"/>
        <vehicle id="background.1" x="7.70" y="-1.60" angle="90.00" type="human" speed="0.63" pos="7.70" lane="e0_0" slope="0.00"/>
        <vehicle id="ego" x="15.60" y="-1.60" angle="90.00" type="ego_type" speed="0.00" pos="15.60" lane="e0_0" slope="0.00"/>
    </timestep>
    <timestep time="38.00">
        <vehicle id="background.0" x="305.48" y="-1.60" angle="90.00" type="human" speed="13.16" pos="5.48" lane="e1_0" slope="0.00"/>
        <vehicle id="background.1" x="7.90" y="-1.60" angle="90.00" type="human" speed="0.39" pos="7.90" lane="e0_0" slope="0.00"/>
        <vehicle id="ego" x="16.10" y="-1.60" angle="90.00" type="ego_type" speed="1.00" pos="16.10" lane="e0_0" slope="0.00"/>
    </timestep>
    <timestep time="38.50">
        <vehicle id="background.0" x="312.09" y="-1.60" angle="90.00" type="human" speed="13.22" pos="12.09" lane="e1_0" slope="0.00"/>
        <vehicle id="background.1" x="8.19" y="-1.60" angle="90.00" type="human" speed="0.59" pos="8.19" lane="e0_0" slope="0.00"/>
        <vehicle id="ego" x="16.10" y="-1.60" angle="90.00" type="ego_type" speed="0.00" pos="16.10" lane="e0_0" slope="0.00"/>
    </timestep>
    <timestep time="39.00">
        <vehicle id="background.0" x="318.64" y="-1.60" angle="90.00" type="human" speed="13.10" pos="18.64" lane="e1_0" slope="0.00"/>
        <vehicle id="background.1" x="8.36" y="-1.60" angle="90.00" type="human" speed="0.34" pos="8.36" lane="e0_0" slope="0.00"/>
        <vehicle id="ego" x="16.10" y="-1.60" angle="90.00" type="ego_type" speed="0.00" pos="16.10" lane="e0_0" slope="0.00"/>
    </timestep>
    <timestep time="39.50">
        <vehicle id="background.0" x="325.19" y="-1.60" angle="90.00" type="human" speed="13.10" pos="25.19" lane="e1_0" slope="0.00"/>
        <vehicle id="background.1" x="8.45" y="-1.60" angle="90.00" type="human" speed="0.18" pos="8.45" lane="e0_0" slope="0.00"/>
        <vehicle id="ego" x="16.10" y="-1.60" angle="90.00" type="ego_type" speed="0.00" pos="16.10" lane="e0_0" slope="0.00"/>
    </timestep>
    <timestep time="40.00">
        <vehicle id="background.0" x="331.61" y="-1.60" angle="90.00" type="human" speed="12.84" pos="31.61" lane="e1_0" slope="0.00"/>
        <vehicle id="background.1" x="8.52" y="-1.60" angle="90.00" type="human" speed="0.13" pos="8.52" lane="e0_0" slope="0.00"/>
        <vehicle id="ego" x="16.10" y="-1.60" angle="90.00" type="ego_type" speed="0.00" pos="16.10" lane="e0_0" slope="0.00"/>
    </timestep>
    <timestep time="40.50">
        <vehicle id="background.0" x="338.03" y="-1.60" angle="90.00" type="human" speed="12.83" pos="38.03" lane="e1_0" slope="0.00"/>
        <vehicle id="background.1" x="8.55" y="-1.60" angle="90.00" type="human" speed="0.07" pos="8.55" lane="e0_0" slope="0.00"/>
        <vehicle id="ego" x="16.10" y="-1.60" angle="90.00" type="ego_type" speed="0.00" pos="16.10" lane="e0_0" slope="0.00"/>
    </timestep>
    <timestep time="41.00">
        <vehicle id="background.0" x="344.50" y="-1.60" angle="90.00" type="human" speed="12.94" pos="44.50" lane="e1_0" slope="0.00"/>
        <vehicle id="background.1" x="8.57" y="-1.60" angle="90.00" type="human" speed="0.04" pos="8.57" lane="e0_0" slope="0.00"/>
        <vehicle id="ego" x="16.10" y="-1.60" angle="90.00" type="ego_type" speed="0.00" pos="16.10" lane="e0_0" slope="0.00"/>
    </timestep>
    <timestep time="41.50">
        <vehicle id="background.1" x="8.59" y="-1.60" angle="90.00" type="human" speed="0.02" pos="8.59" lane="e0_0" slope="0.00"/>
        <vehicle id="ego" x="16.10" y="-1.60" angle="90.00" type="ego_type" speed="0.00" pos="16.10" lane="e0_0" slope="0.00"/>
    </timestep>
    <timestep time="42.00">
        <vehicle id="background.1" x="8.59" y="-1.60" angle="90.00" type="human" speed="0.01" pos="8.59" lane="e0_0" slope="0.00"/>
        <vehicle id="ego" x="16.10" y="-1.60" angle="90.00" type="ego_type" speed="0.00" pos="16.10" lane="e0_0" slope="0.00"/>
    </timestep>
    <timestep time="42.50">
        <vehicle id="background.1" x="8.59" y="-1.60" angle="90.00" type="human" speed="0.01" pos="8.59" lane="e0_0" slope="0.00"/>
        <vehicle id="ego" x="16.35" y="-1.60" angle="90.00" type="ego_type" speed="0.50" pos="16.35" lane="e0_0" slope="0.00"/>
    </timestep>
    <timestep time="43.00">
        <vehicle id="background.1" x="8.69" y="-1.60" angle="90.00" type="human" speed="0.20" pos="8.69" lane="e0_0" slope="0.00"/>
        <vehicle id="ego" x="16.35" y="-1.60" angle="90.00" type="ego_type" speed="0.00" pos="16.35" lane="e0_0" slope="0.00"/>
    </timestep>
    <timestep time="43.50">
        <vehicle id="background.1" x="8.77" y="-1.60" angle="90.00" type="human" speed="0.14" pos="8.77" lane="e0_0" slope="0.00"/>
        <vehicle id="ego" x="16.60" y="-1.60" angle="90.00" type="ego_type" speed="0.50" pos="16.60" lane="e0_0" slope="0.00"/>
    </timestep>
    <timestep time="44.00">
        <vehicle id="background.1" x="8.92" y="-1.60" angle="90.00" type="human" speed="0.31" pos="8.92" lane="e0_0" slope="0.00"/>
        <vehicle id="ego" x="16.60" y="-1.60" angle="90.00" type="ego_type" speed="0.00" pos="16.60" lane="e0_0" slope="0.00"/>
    </timestep>
    <timestep time="44.50">
        <vehicle id="background.1" x="9.00" y="-1.60" angle="90.00" type="human" speed="0.16" pos="9.00" lane="e0_0" slope="0.00"/>
        <vehicle id="ego" x="16.85" y="-1.60" angle="90.00" type="ego_type" speed="0.50" pos="16.85" lane="e0_0" slope="0.00"/>
    </timestep>
    <timestep time="45.00">
        <vehicle id="background.1" x="9.14" y="-1.60" angle="90.00" type="human" speed="0.28" pos="9.14" lane="e0_0" slope="0.00"/>
        <vehicle id="ego" x="17.60" y="-1.60" angle="90.00" type="ego_type" speed="1.50" pos="17.60" lane="e0_0" slope="0.00"/>
    </timestep>
    <timestep time="45.50">
        <vehicle id="background.1" x="9.57" y="-1.60" angle="90.00" type="human" speed="0.85" pos="9.57" lane="e0_0" slope="0.00"/>
        <vehicle id="ego" x="17.60" y="-1.60" angle="90.00" type="ego_type" speed="0.00" pos="17.60" lane="e0_0" slope="0.00"/>
    </timestep>
    <timestep time="46.00">
        <vehicle id="background.1" x="9.83" y="-1.60" angle="90.00" type="human" speed="0.52" pos="9.83" lane="e0_0" slope="0.00"/>
        <vehicle id="ego" x="17.60" y="-1.60" angle="90.00" type="ego_type" speed="0.00" pos="17.60" lane="e0_0" slope="0.00"/>
    </timestep>
    <timestep time="46.50">
        <vehicle id="background.1" x="9.96" y="-1.60" angle="90.00" type="human" speed="0.26" pos="9.96" lane="e0_0" slope="0.00"/>
        <vehicle id="ego" x="17.85" y="-1.60" angle="90.00" type="ego_type" speed="0.50" pos="17.85" lane="e0_0" slope="0.00"/>
    </timestep>
    <timestep time="47.00">
        <vehicle id="background.1" x="10.14" y="-1.60" angle="90.00" type="human" speed="0.35" pos="10.14" lane="e0_0" slope="0.00"/>
        <vehicle id="ego" x="17.85" y="-1.60" angle="90.00" type="ego_type" speed="0.00" pos="17.85" lane="e0_0" slope="0.00"/>
    </timestep>
    <timestep time="47.50">
        <vehicle id="background.1" x="10.23" y="-1.60" angle="90.00" type="human" speed="0.19" pos="10.23" lane="e0_0" slope="0.00"/>
        <vehicle id="ego" x="18.10" y="-1.60" angle="90.00" type="ego_type" speed="0.50" pos="18.10" lane="e0_0" slope="0.00"/>
    </timestep>
    <timestep time="48.00">
        <vehicle id="background.1" x="10.41" y="-1.60" angle="90.00" type="human" speed="0.36" pos="10.41" lane="e0_0" slope="0.00"/>
        <vehicle id="ego" x="18.10" y="-1.60" angle="90.00" type="ego_type" speed="0.00" pos="18.10" lane="e0_0" slope="0.00"/>
    </timestep>
    <timestep time="48.50">
        <vehicle id="background.1" x="10.49" y="-1.60" angle="90.00" type="human" speed="0.15" pos="10.49" lane="e0_0" slope="0.00"/>
        <vehicle id="ego" x="18.10" y="-1.60" angle="90.00" type="ego_type" speed="0.00" pos="18.10" lane="e0_0" slope="0.00"/>
    </timestep>
    <timestep time="49.00">
        <vehicle id="background.1" x="10.54" y="-1.60" angle="90.00" type="human" speed="0.11" pos="10.54" lane="e0_0" slope="0.00"/>
        <vehicle id="ego" x="18.10" y="-1.60" angle="90.00" type="ego_type" speed="0.00" pos="18.10" lane="e0_0" slope="0.00"/>
    </timestep>
    <timestep time="49.50">
        <vehicle id="background.1" x="10.57" y="-1.60" angle="90.00" type="human" speed="0.05" pos="10.57" lane="e0_0" slope="0.00"/>
        <vehicle id="ego" x="18.60" y="-1.60" angle="90.00" type="ego_type" speed="1.00" pos="18.60" lane="e0_0" slope="0.00"/>
    </timestep>
    <timestep time="50.00">
        <vehicle id="background.1" x="10.81" y="-1.60" angle="90.00" type="human" speed="0.48" pos="10.81" lane="e0_0" slope="0.00"/>
        <vehicle id="ego" x="18.60" y="-1.60" angle="90.00" type="ego_type" speed="0.00" pos="18.60" lane="e0_0" slope="0.00"/>
    </timestep>
    <timestep time="50.50">
        <vehicle id="background.1" x="10.93" y="-1.60" angle="90.00" type="human" speed="0.24" pos="10.93" lane="e0_0" slope="0.00"/>
        <vehicle id="ego" x="18.60" y="-1.60" angle="90.00" type="ego_type" speed="0.00" pos="18.60" lane="e0_0" slope="0.00"/>
    </timestep>
    <timestep time="51.00">
        <vehicle id="background.1" x="11.00" y="-1.60" angle="90.00" type="human" speed="0.14" pos="11.00" lane="e0_0" slope="0.00"/>
        <vehicle id="ego" x="18.85" y="-1.60" angle="90.00" type="ego_type" speed="0.50" pos="18.85" lane="e0_0" slope="0.00"/>
    </timestep>
    <timestep time="51.50">
        <vehicle id="background.1" x="11.15" y="-1.60" angle="90.00" type="human" speed="0.31" pos="11.15" lane="e0_0" slope="0.00"/>
        <vehicle id="ego" x="19.60" y="-1.60" angle="90.00" type="ego_type" speed="1.50" pos="19.60" lane="e0_0" slope="0.00"/>
    </timestep>
    <timestep time="52.00">
        <vehicle id="background.1" x="11.58" y="-1.60" angle="90.00" type="human" speed="0.86" pos="11.58" lane="e0_0" slope="0.00"/>
        <vehicle id="ego" x="20.60" y="-1.60" angle="90.00" type="ego_type" speed="2.00" pos="20.60" lane="e0_0" slope="0.00"/>
    </timestep>
    <timestep time="52.50">
        <vehicle id="background.1" x="12.17" y="-1.60" angle="90.00" type="human" speed="1.18" pos="12.17" lane="e0_0" slope="0.00"/>
        <vehicle id="ego" x="20.85" y="-1.60" angle="90.00" type="ego_type" speed="0.50" pos="20.85" lane="e0_0" slope="0.00"/>
    </timestep>
    <timestep time="53.00">
        <vehicle id="background.1" x="12.68" y="-1.60" angle="90.00" type="human" speed="1.02" pos="12.68" lane="e0_0" slope="0.00"/>
        <vehicle id="background.2" x="5.10" y="-1.60" angle="90.00" type="human" speed="0.08" pos="5.10" lane="e0_0" slope="0.00"/>
        <vehicle id="ego" x="21.60" y="-1.60" angle="90.00" type="ego_type" speed="1.50" pos="21.60" lane="e0_0" slope="0.00"/>
    </timestep>
    <timestep time="53.50">
        <vehicle id="background.1" x="13.22" y="-1.60" angle="90.00" type="human" speed="1.08" pos="13.22" lane="e0_0" slope="0.00"/>
        <vehicle id="background.2" x="5.13" y="-1.60" angle="90.00" type="human" speed="0.06" pos="5.13" lane="e0_0" slope="0.00"/>
        <vehicle id="ego" x="22.85" y="-1.60" angle="90.00" type="ego_type" speed="2.50" pos="22.85" lane="e0_0" slope="0.00"/>
    </timestep>
    <timestep time="54.00">
        <vehicle id="background.1" x="14.16" y="-1.60" angle="90.00" type="human" speed="1.88" pos="14.16" lane="e0_0" slope="0.00"/>
        <vehicle id="background.2" x="5.40" y="-1.60" angle="90.00" type="human" speed="0.54" pos="5.40" lane="e0_0" slope="0.00"/>
        <vehicle id="ego" x="24.35" y="-1.60" angle="90.00" type="ego_type" speed="3.00" pos="24.35" lane="e0_0" slope="0.00"/>
    </timestep>
    <timestep time="54.50">
        <vehicle id="background.1" x="15.32" y="-1.60" angle="90.00" type="human" speed="2.31" pos="15.32" lane="e0_0" slope="0.00"/>
        <vehicle id="background.2" x="6.02" y="-1.60" angle="90.00" type="human" speed="1.24" pos="6.02" lane="e0_0" slope="0.00"/>
        <vehicle id="ego" x="26.35" y="-1.60" angle="90.00" type="ego_type" speed="4.00" pos="26.35" lane="e0_0" slope="0.00"/>
    </timestep>
    <timestep time="55.00">
        <vehicle id="background.1" x="16.85" y="-1.60" angle="90.00" type="human" speed="3.06" pos="16.85" lane="e0_0" slope="0.00"/>
        <vehicle id="background.2" x="6.92" y="-1.60" angle="90.00" type="human" speed="1.79" pos="6.92" lane="e0_0" slope="0.00"/>
        <vehicle id="ego" x="28.85" y="-1.60" angle="90.00" type="ego_type" speed="5.00" pos="28.85" lane="e0_0" slope="0.00"/>
    </timestep>
    <timestep time="55.50">
        <vehicle id="background.1" x="18.83" y="-1.60" angle="90.00" type="human" speed="3.96" pos="18.83" lane="e0_0" slope="0.00"/>
        <vehicle id="background.2" x="8.04" y="-1.60" angle="90.00" type="human" speed="2.24" pos="8.04" lane="e0_0" slope="0.00"/>
        <vehicle id="ego" x="31.35" y="-1.60" angle="90.00" type="ego_type" speed="5.00" pos="31.35" lane="e0_0" slope="0.00"/>
    </timestep>
    <timestep time="56.00">
        <vehicle id="background.1" x="21.07" y="-1.60" angle="90.00" type="human" speed="4.50" pos="21.07" lane="e0_0" slope="0.00"/>
        <vehicle id="background.2" x="9.47" y="-1.60" angle="90.00" type="human" speed="2.86" pos="9.47" lane="e0_0" slope="0.00"/>
        <vehicle id="ego" x="33.85" y="-1.60" angle="90.00" type="ego_type" speed="5.00" pos="33.85" lane="e0_0" slope="0.00"/>
    </timestep>
    <timestep time="56.50">
        <vehicle id="background.1" x="23.54" y="-1.60" angle="90.00" type="human" speed="4.93" pos="23.54" lane="e0_0" slope="0.00"/>
        <vehicle id="background.2" x="11.28" y="-1.60" angle="90.00" type="human" speed="3.64" pos="11.28" lane="e0_0" slope="0.00"/>
        <vehicle id="ego" x="36.35" y="-1.60" angle="90.00" type="ego_type" speed="5.00" pos="36.35" lane="e0_0" slope="0.00"/>
    </timestep>
    <timestep time="57.00">
        <vehicle id="background.1" x="25.97" y="-1.60" angle="90.00" type="human" speed="4.86" pos="25.97" lane="e0_0" slope="0.00"/>
        <vehicle id="background.2" x="13.54" y="-1.60" angle="90.00" type="human" speed="4.50" pos="13.54" lane="e0_0" slope="0.00"/>
        <vehicle id="ego" x="38.48" y="-1.60" angle="90.00" type="ego_type" speed="4.25" pos="38.48" lane="e0_0" slope="0.00"/>
    </timestep>
    <timestep time="57.50">
        <vehicle id="background.1" x="28.16" y="-1.60" angle="90.00" type="human" speed="4.38" pos="28.16" lane="e0_0" slope="0.00"/>
        <vehicle id="background.2" x="15.94" y="-1.60" angle="90.00" type="human" speed="4.81" pos="15.94" lane="e0_0" slope="0.00"/>
        <vehicle id="ego" x="39.85" y="-1.60" angle="90.00" type="ego_type" speed="2.75" pos="39.85" lane="e0_0" slope="0.00"/>
    </timestep>
    <timestep time="58.00">
        <vehicle id="background.1" x="29.77" y="-1.60" angle="90.00" type="human" speed="3.22" pos="29.77" lane="e0_0" slope="0.00"/>
        <vehicle id="background.2" x="18.02" y="-1.60" angle="90.00" type="human" speed="4.16" pos="18.02" lane="e0_0" slope="0.00"/>
        <vehicle id="ego" x="41.73" y="-1.60" angle="90.00" type="ego_type" speed="3.75" pos="41.73" lane="e0_0" slope="0.00"/>
    </timestep>
    <timestep time="58.50">
        <vehicle id="background.1" x="31.81" y="-1.60" angle="90.00" type="human" speed="4.08" pos="31.81" lane="e0_0" slope="0.00"/>
        <vehicle id="background.2" x="19.92" y="-1.60" angle="90.00" type="human" speed="3.80" pos="19.92" lane="e0_0" slope="0.00"/>
        <vehicle id="ego" x="43.60" y="-1.60" angle="90.00" type="ego_type" speed="3.75" pos="43.60" lane="e0_0" slope="0.00"/>
    </timestep>
    <timestep time="59.00">
        <vehicle id="background.1" x="33.80" y="-1.60" angle="90.00" type="human" speed="3.98" pos="33.80" lane="e0_0" slope="0.00"/>
        <vehicle id="background.2" x="22.01" y="-1.60" angle="90.00" type="human" speed="4.16" pos="22.01" lane="e0_0" slope="0.00"/>
        <vehicle id="ego" x="45.73" y="-1.60" angle="90.00" type="ego_type" speed="4.25" pos="45.73" lane="e0_0" slope="0.00"/>
    </timestep>
    <timestep time="59.50">
        <vehicle id="background.1" x="35.93" y="-1.60" angle="90.00" type="human" speed="4.26" pos="35.93" lane="e0_0" slope="0.00"/>
        <vehicle id="background.2" x="24.09" y="-1.60" angle="90.00" type="human" speed="4.17" pos="24.09" lane="e0_0" slope="0.00"/>
        <vehicle id="ego" x="48.10" y="-1.60" angle="90.00" type="ego_type" speed="4.75" pos="48.10" lane="e0_0" slope="0.00"/>
    </timestep>
    <timestep time="60.00">
        <vehicle id="background.1" x="38.06" y="-1.60" angle="90.00" type="human" speed="4.26" pos="38.06" lane="e0_0" slope="0.00"/>