<?xml version="1.0" encoding="UTF-8"?>

<!-- generated on 2026-05-13 21:24:47 by Eclipse SUMO sumo Version 1.24.0
<sumoConfiguration xmlns:xsi="http://www.w3.org/2001/XMLSchema-instance" xsi:noNamespaceSchemaLocation="http://sumo.dlr.de/xsd/sumoConfiguration.xsd">

    <input>
        <net-file value="scenarios/simple_arterial/simple_arterial.net.xml"/>
        <route-files value="scenarios/simple_arterial/simple_arterial.rou.xml"/>
        <additional-files value="scenarios/simple_arterial/simple_arterial.tls.xml"/>
    </input>

    <output>
        <fcd-output value="runs/fcd_random/episode_00011_seed_111.fcd.xml"/>
    </output>

    <time>
        <begin value="0"/>
        <end value="900"/>
        <step-length value="0.5"/>
    </time>

    <report>
        <no-warnings value="true"/>
    </report>

    <traci_server>
        <remote-port value="30543"/>
    </traci_server>

    <random_number>
        <seed value="111"/>
    </random_number>

</sumoConfiguration>
-->

<fcd-export xmlns:xsi="http://www.w3.org/2001/XMLSchema-instance" xsi:noNamespaceSchemaLocation="http://sumo.dlr.de/xsd/fcd_file.xsd">
    <timestep time="0.00"/>
    <timestep time="0.50"/>
    <timestep time="1.00"/>
    <timestep time="1.50"/>
    <timestep time="2.00"/>
    <timestep time="2.50"/>
    <timestep time="3.00"/>
    <timestep time="3.50"/>
    <timestep time="4.00"/>
    <timestep time="4.50"/>
    <timestep time="5.00"/>
    <timestep time="5.50"/>
    <timestep time="6.00">
        <vehicle id="background.0" x="5.10" y="-1.60" angle="90.00" type="human" speed="13.89" pos="5.10" lane="e0_0" slope="0.00"/>
    </timestep>
    <timestep time="6.50">
        <vehicle id="background.0" x="11.95" y="-1.60" angle="90.00" type="human" speed="13.70" pos="11.95" lane="e0_0" slope="0.00"/>
    </timestep>
    <timestep time="7.00">
        <vehicle id="background.0" x="18.72" y="-1.60" angle="90.00" type="human" speed="13.54" pos="18.72" lane="e0_0" slope="0.00"/>
    </timestep>
    <timestep time="7.50">
        <vehicle id="background.0" x="25.50" y="-1.60" angle="90.00" type="human" speed="13.57" pos="25.50" lane="e0_0" slope="0.00"/>
    </timestep>
    <timestep time="8.00">
        <vehicle id="background.0" x="32.37" y="-1.60" angle="90.00" type="human" speed="13.73" pos="32.37" lane="e0_0" slope="0.00"/>
    </timestep>
    <timestep time="8.50">
        <vehicle id="background.0" x="39.08" y="-1.60" angle="90.00" type="human" speed="13.41" pos="39.08" lane="e0_0" slope="0.00"/>
    </timestep>
    <timestep time="9.00">
        <vehicle id="background.0" x="45.81" y="-1.60" angle="90.00" type="human" speed="13.46" pos="45.81" lane="e0_0" slope="0.00"/>
    </timestep>
    <timestep time="9.50">
        <vehicle id="background.0" x="52.74" y="-1.60" angle="90.00" type="human" speed="13.85" pos="52.74" lane="e0_0" slope="0.00"/>
    </timestep>
    <timestep time="10.00">
        <vehicle id="background.0" x="59.56" y="-1.60" angle="90.00" type="human" speed="13.65" pos="59.56" lane="e0_0" slope="0.00"/>
    </timestep>
    <timestep time="10.50">
        <vehicle id="background.0" x="66.31" y="-1.60" angle="90.00" type="human" speed="13.50" pos="66.31" lane="e0_0" slope="0.00"/>
    </timestep>
    <timestep time="11.00">
        <vehicle id="background.0" x="73.11" y="-1.60" angle="90.00" type="human" speed="13.59" pos="73.11" lane="e0_0" slope="0.00"/>
    </timestep>
    <timestep time="11.50">
        <vehicle id="background.0" x="79.84" y="-1.60" angle="90.00" type="human" speed="13.47" pos="79.84" lane="e0_0" slope="0.00"/>
    </timestep>
    <timestep time="12.00">
        <vehicle id="background.0" x="86.72" y="-1.60" angle="90.00" type="human" speed="13.76" pos="86.72" lane="e0_0" slope="0.00"/>
    </timestep>
    <timestep time="12.50">
        <vehicle id="background.0" x="93.66" y="-1.60" angle="90.00" type="human" speed="13.86" pos="93.66" lane="e0_0" slope="0.00"/>
    </timestep>
    <timestep time="13.00">
        <vehicle id="background.0" x="100.37" y="-1.60" angle="90.00" type="human" speed="13.42" pos="100.37" lane="e0_0" slope="0.00"/>
    </timestep>
    <timestep time="13.50">
        <vehicle id="background.0" x="107.11" y="-1.60" angle="90.00" type="human" speed="13.48" pos="107.11" lane="e0_0" slope="0.00"/>
    </timestep>
    <timestep time="14.00">
        <vehicle id="background.0" x="113.93" y="-1.60" angle="90.00" type="human" speed="13.65" pos="113.93" lane="e0_0" slope="0.00"/>
        <vehicle id="ego" x="5.10" y="-1.60" angle="90.00" type="ego_type" speed="0.00" pos="5.10" lane="e0_0" slope="0.00"/>
    </timestep>
    <timestep time="14.50">
        <vehicle id="background.0" x="120.66" y="-1.60" angle="90.00" type="human" speed="13.45" pos="120.66" lane="e0_0" slope="0.00"/>
        <vehicle id="ego" x="5.10" y="-1.60" angle="90.00" type="ego_type" speed="0.00" pos="5.10" lane="e0_0" slope="0.00"/>
    </timestep>
    <timestep time="15.00">
        <vehicle id="background.0" x="127.42" y="-1.60" angle="90.00" type="human" speed="13.53" pos="127.42" lane="e0_0" slope="0.00"/>
        <vehicle id="ego" x="5.10" y="-1.60" angle="90.00" type="ego_type" speed="0.00" pos="5.10" lane="e0_0" slope="0.00"/>
    </timestep>
    <timestep time="15.50">
        <vehicle id="background.0" x="134.37" y="-1.60" angle="90.00" type="human" speed="13.89" pos="134.37" lane="e0_0" slope="0.00"/>
        <vehicle id="ego" x="5.60" y="-1.60" angle="90.00" type="ego_type" speed="1.00" pos="5.60" lane="e0_0" slope="0.00"/>
    </timestep>
    <timestep time="16.00">
        <vehicle id="background.0" x="141.07" y="-1.60" angle="90.00" type="human" speed="13.40" pos="141.07" lane="e0_0" slope="0.00"/>
        <vehicle id="ego" x="6.10" y="-1.60" angle="90.00" type="ego_type" speed="1.00" pos="6.10" lane="e0_0" slope="0.00"/>
    </timestep>
    <timestep time="16.50">
        <vehicle id="background.0" x="147.92" y="-1.60" angle="90.00" type="human" speed="13.72" pos="147.92" lane="e0_0" slope="0.00"/>
        <vehicle id="ego" x="6.85" y="-1.60" angle="90.00" type="ego_type" speed="1.50" pos="6.85" lane="e0_0" slope="0.00"/>
    </timestep>
    <timestep time="17.00">
        <vehicle id="background.0" x="154.85" y="-1.60" angle="90.00" type="human" speed="13.84" pos="154.85" lane="e0_0" slope="0.00"/>
        <vehicle id="ego" x="7.85" y="-1.60" angle="90.00" type="ego_type" speed="2.00" pos="7.85" lane="e0_0" slope="0.00"/>
    </timestep>
    <timestep time="17.50">
        <vehicle id="background.0" x="161.69" y="-1.60" angle="90.00" type="human" speed="13.69" pos="161.69" lane="e0_0" slope="0.00"/>
        <vehicle id="ego" x="8.10" y="-1.60" angle="90.00" type="ego_type" speed="0.50" pos="8.10" lane="e0_0" slope="0.00"/>
    </timestep>
    <timestep time="18.00">
        <vehicle id="background.0" x="168.64" y="-1.60" angle="90.00" type="human" speed="13.89" pos="168.64" lane="e0_0" slope="0.00"/>
        <vehicle id="ego" x="8.35" y="-1.60" angle="90.00" type="ego_type" speed="0.50" pos="8.35" lane="e0_0" slope="0.00"/>
    </timestep>
    <timestep time="18.50">
        <vehicle id="background.0" x="175.40" y="-1.60" angle="90.00" type="human" speed="13.52" pos="175.40" lane="e0_0" slope="0.00"/>
        <vehicle id="ego" x="8.85" y="-1.60" angle="90.00" type="ego_type" speed="1.00" pos="8.85" lane="e0_0" slope="0.00"/>
    </timestep>
    <timestep time="19.00">
        <vehicle id="background.0" x="182.10" y="-1.60" angle="90.00" type="human" speed="13.41" pos="182.10" lane="e0_0" slope="0.00"/>
        <vehicle id="ego" x="9.60" y="-1.60" angle="90.00" type="ego_type" speed="1.50" pos="9.60" lane="e0_0" slope="0.00"/>
    </timestep>
    <timestep time="19.50">
        <vehicle id="background.0" x="188.84" y="-1.60" angle="90.00" type="human" speed="13.48" pos="188.84" lane="e0_0" slope="0.00"/>
        <vehicle id="ego" x="10.35" y="-1.60" angle="90.00" type="ego_type" speed="1.50" pos="10.35" lane="e0_0" slope="0.00"/>
    </timestep>
    <timestep time="20.00">
        <vehicle id="background.0" x="195.70" y="-1.60" angle="90.00" type="human" speed="13.72" pos="195.70" lane="e0_0" slope="0.00"/>
        <vehicle id="ego" x="11.60" y="-1.60" angle="90.00" type="ego_type" speed="2.50" pos="11.60" lane="e0_0" slope="0.00"/>
    </timestep>
    <timestep time="20.50">
        <vehicle id="background.0" x="202.55" y="-1.60" angle="90.00" type="human" speed="13.70" pos="202.55" lane="e0_0" slope="0.00"/>
        <vehicle id="ego" x="12.10" y="-1.60" angle="90.00" type="ego_type" speed="1.00" pos="12.10" lane="e0_0" slope="0.00"/>
    </timestep>
    <timestep time="21.00">
        <vehicle id="background.0" x="209.30" y="-1.60" angle="90.00" type="human" speed="13.50" pos="209.30" lane="e0_0" slope="0.00"/>
        <vehicle id="ego" x="12.85" y="-1.60" angle="90.00" type="ego_type" speed="1.50" pos="12.85" lane="e0_0" slope="0.00"/>
    </timestep>
    <timestep time="21.50">
        <vehicle id="background.0" x="216.22" y="-1.60" angle="90.00" type="human" speed="13.85" pos="216.22" lane="e0_0" slope="0.00"/>
        <vehicle id="ego" x="13.85" y="-1.60" angle="90.00" type="ego_type" speed="2.00" pos="13.85" lane="e0_0" slope="0.00"/>
    </timestep>
    <timestep time="22.00">
        <vehicle id="background.0" x="223.03" y="-1.60" angle="90.00" type="human" speed="13.62" pos="223.03" lane="e0_0" slope="0.00"/>
        <vehicle id="ego" x="14.85" y="-1.60" angle="90.00" type="ego_type" speed="2.00" pos="14.85" lane="e0_0" slope="0.00"/>
    </timestep>
    <timestep time="22.50">
        <vehicle id="background.0" x="229.94" y="-1.60" angle="90.00" type="human" speed="13.81" pos="229.94" lane="e0_0" slope="0.00"/>
        <vehicle id="ego" x="15.85" y="-1.60" angle="90.00" type="ego_type" speed="2.00" pos="15.85" lane="e0_0" slope="0.00"/>
    </timestep>
    <timestep time="23.00">
        <vehicle id="background.0" x="236.81" y="-1.60" angle="90.00" type="human" speed="13.74" pos="236.81" lane="e0_0" slope="0.00"/>
        <vehicle id="ego" x="16.10" y="-1.60" angle="90.00" type="ego_type" speed="0.50" pos="16.10" lane="e0_0" slope="0.00"/>
    </timestep>
    <timestep time="23.50">
        <vehicle id="background.0" x="243.74" y="-1.60" angle="90.00" type="human" speed="13.87" pos="243.74" lane="e0_0" slope="0.00"/>
        <vehicle id="ego" x="16.10" y="-1.60" angle="90.00" type="ego_type" speed="0.00" pos="16.10" lane="e0_0" slope="0.00"/>
    </timestep>
    <timestep time="24.00">
        <vehicle id="background.0" x="250.61" y="-1.60" angle="90.00" type="human" speed="13.72" pos="250.61" lane="e0_0" slope="0.00"/>
        <vehicle id="ego" x="16.10" y="-1.60" angle="90.00" type="ego_type" speed="0.00" pos="16.10" lane="e0_0" slope="0.00"/>
    </timestep>
    <timestep time="24.50">
        <vehicle id="background.0" x="257.37" y="-1.60" angle="90.00" type="human" speed="13.52" pos="257.37" lane="e0_0" slope="0.00"/>
        <vehicle id="ego" x="16.10" y="-1.60" angle="90.00" type="ego_type" speed="0.00" pos="16.10" lane="e0_0" slope="0.00"/>
    </timestep>
    <timestep time="25.00">
        <vehicle id="background.0" x="264.10" y="-1.60" angle="90.00" type="human" speed="13.47" pos="264.10" lane="e0_0" slope="0.00"/>
        <vehicle id="ego" x="16.10" y="-1.60" angle="90.00" type="ego_type" speed="0.00" pos="16.10" lane="e0_0" slope="0.00"/>
    </timestep>
    <timestep time="25.50">
        <vehicle id="background.0" x="270.87" y="-1.60" angle="90.00" type="human" speed="13.54" pos="270.87" lane="e0_0" slope="0.00"/>
        <vehicle id="ego" x="16.35" y="-1.60" angle="90.00" type="ego_type" speed="0.50" pos="16.35" lane="e0_0" slope="0.00"/>
    </timestep>
    <timestep time="26.00">
        <vehicle id="background.0" x="277.77" y="-1.60" angle="90.00" type="human" speed="13.80" pos="277.77" lane="e0_0" slope="0.00"/>
        <vehicle id="ego" x="16.35" y="-1.60" angle="90.00" type="ego_type" speed="0.00" pos="16.35" lane="e0_0" slope="0.00"/>
    </timestep>
    <timestep time="26.50">
        <vehicle id="background.0" x="284.47" y="-1.60" angle="90.00" type="human" speed="13.40" pos="284.47" lane="e0_0" slope="0.00"/>
        <vehicle id="ego" x="16.35" y="-1.60" angle="90.00" type="ego_type" speed="0.00" pos="16.35" lane="e0_0" slope="0.00"/>
    </timestep>
    <timestep time="27.00">
        <vehicle id="background.0" x="291.31" y="-1.60" angle="90.00" type="human" speed="13.70" pos="291.31" lane="e0_0" slope="0.00"/>
        <vehicle id="background.1" x="5.10" y="-1.60" angle="90.00" type="human" speed="3.25" pos="5.10" lane="e0_0" slope="0.00"/>
        <vehicle id="ego" x="16.35" y="-1.60" angle="90.00" type="ego_type" speed="0.00" pos="16.35" lane="e0_0" slope="0.00"/>
    </timestep>
    <timestep time="27.50">
        <vehicle id="background.0" x="298.13" y="-1.60" angle="90.00" type="human" speed="13.64" pos="298.13" lane="e0_0" slope="0.00"/>
        <vehicle id="background.1" x="6.53" y="-1.60" angle="90.00" type="human" speed="2.87" pos="6.53" lane="e0_0" slope="0.00"/>
        <vehicle id="ego" x="16.35" y="-1.60" angle="90.00" type="ego_type" speed="0.00" pos="16.35" lane="e0_0" slope="0.00"/>
    </timestep>
    <timestep time="28.00">
        <vehicle id="background.0" x="304.85" y="-1.60" angle="90.00" type="human" speed="13.63" pos="4.85" lane="e1_0" slope="0.00"/>
        <vehicle id="background.1" x="7.45" y="-1.60" angle="90.00" type="human" speed="1.83" pos="7.45" lane="e0_0" slope="0.00"/>
        <vehicle id="ego" x="16.35" y="-1.60" angle="90.00" type="ego_type" speed="0.00" pos="16.35" lane="e0_0" slope="0.00"/>
    </timestep>
    <timestep time="28.50">
        <vehicle id="background.0" x="311.58" y="-1.60" angle="90.00" type="human" speed="13.46" pos="11.58" lane="e1_0" slope="0.00"/>
        <vehicle id="background.1" x="8.07" y="-1.60" angle="90.00" type="human" speed="1.25" pos="8.07" lane="e0_0" slope="0.00"/>
        <vehicle id="ego" x="16.35" y="-1.60" angle="90.00" type="ego_type" speed="0.00" pos="16.35" lane="e0_0" slope="0.00"/>
    </timestep>
    <timestep time="29.00">
        <vehicle id="background.0" x="318.49" y="-1.60" angle="90.00" type="human" speed="13.83" pos="18.49" lane="e1_0" slope="0.00"/>
        <vehicle id="background.1" x="8.45" y="-1.60" angle="90.00" type="human" speed="0.77" pos="8.45" lane="e0_0" slope="0.00"/>
        <vehicle id="ego" x="16.35" y="-1.60" angle="90.00" type="ego_type" speed="0.00" pos="16.35" lane="e0_0" slope="0.00"/>
    </timestep>
    <timestep time="29.50">
        <vehicle id="background.0" x="325.42" y="-1.60" angle="90.00" type="human" speed="13.85" pos="25.42" lane="e1_0" slope="0.00"/>
        <vehicle id="background.1" x="8.64" y="-1.60" angle="90.00" type="human" speed="0.38" pos="8.64" lane="e0_0" slope="0.00"/>
        <vehicle id="ego" x="16.35" y="-1.60" angle="90.00" type="ego_type" speed="0.00" pos="16.35" lane="e0_0" slope="0.00"/>
    </timestep>
    <timestep time="30.00">
        <vehicle id="background.0" x="332.33" y="-1.60" angle="90.00" type="human" speed="13.83" pos="32.33" lane="e1_0" slope="0.00"/>
        <vehicle id="background.1" x="8.73" y="-1.60" angle="90.00" type="human" speed="0.18" pos="8.73" lane="e0_0" slope="0.00"/>
        <vehicle id="ego" x="16.35" y="-1.60" angle="90.00" type="ego_type" speed="0.00" pos="16.35" lane="e0_0" slope="0.00"/>
    </timestep>
    <timestep time="30.50">
        <vehicle id="background.0" x="339.05" y="-1.60" angle="90.00" type="human" speed="13.44" pos="39.05" lane="e1_0" slope="0.00"/>
        <vehicle id="background.1" x="8.79" y="-1.60" angle="90.00" type="human" speed="0.12" pos="8.79" lane="e0_0" slope="0.00"/>
        <vehicle id="ego" x="16.85" y="-1.60" angle="90.00" type="ego_type" speed="1.00" pos="16.85" lane="e0_0" slope="0.00"/>
    </timestep>
    <timestep time="31.00">
        <vehicle id="background.0" x="345.77" y="-1.60" angle="90.00" type="human" speed="13.44" pos="45.77" lane="e1_0" slope="0.00"/>
        <vehicle id="background.1" x="9.03" y="-1.60" angle="90.00" type="human" speed="0.48" pos="9.03" lane="e0_0" slope="0.00"/>
        <vehicle id="ego" x="17.85" y="-1.60" angle="90.00" type="ego_type" speed="2.00" pos="17.85" lane="e0_0" slope="0.00"/>
    </timestep>
    <timestep time="31.50">
        <vehicle id="background.1" x="9.62" y="-1.60" angle="90.00" type="human" speed="1.17" pos="9.62" lane="e0_0" slope="0.00"/>
        <vehicle id="ego" x="19.10" y="-1.60" angle="90.00" type="ego_type" speed="2.50" pos="19.10" lane="e0_0" slope="0.00"/>
    </timestep>
    <timestep time="32.00">
        <vehicle id="background.1" x="10.65" y="-1.60" angle="90.00" type="human" speed="2.07" pos="10.65" lane="e0_0" slope="0.00"/>
        <vehicle id="ego" x="20.60" y="-1.60" angle="90.00" type="ego_type" speed="3.00" pos="20.60" lane="e0_0" slope="0.00"/>
    </timestep>
    <timestep time="32.50">
        <vehicle id="background.1" x="11.95" y="-1.60" angle="90.00" type="human" speed="2.60" pos="11.95" lane="e0_0" slope="0.00"/>
        <vehicle id="ego" x="22.60" y="-1.60" angle="90.00" type="ego_type" speed="4.00" pos="22.60" lane="e0_0" slope="0.00"/>
    </timestep>
    <timestep time="33.00">
        <vehicle id="background.1" x="13.64" y="-1.60" angle="90.00" type="human" speed="3.38" pos="13.64" lane="e0_0" slope="0.00"/>
        <vehicle id="ego" x="23.85" y="-1.60" angle="90.00" type="ego_type" speed="2.50" pos="23.85" lane="e0_0" slope="0.00"/>
    </timestep>
    <timestep time="33.50">
        <vehicle id="background.1" x="14.83" y="-1.60" angle="90.00" type="human" speed="2.38" pos="14.83" lane="e0_0" slope="0.00"/>
        <vehicle id="ego" x="25.10" y="-1.60" angle="90.00" type="ego_type" speed="2.50" pos="25.10" lane="e0_0" slope="0.00"/>
    </timestep>
    <timestep time="34.00">
        <vehicle id="background.1" x="15.97" y="-1.60" angle="90.00" type="human" speed="2.27" pos="15.97" lane="e0_0" slope="0.00"/>
        <vehicle id="ego" x="25.97" y="-1.60" angle="90.00" type="ego_type" speed="1.75" pos="25.98" lane="e0_0" slope="0.00"/>
    </timestep>
    <timestep time="34.50">
        <vehicle id="background.1" x="17.05" y="-1.60" angle="90.00" type="human" speed="2.16" pos="17.05" lane="e0_0" slope="0.00"/>
        <vehicle id="ego" x="26.48" y="-1.60" angle="90.00" type="ego_type" speed="1.00" pos="26.48" lane="e0_0" slope="0.00"/>
    </timestep>
    <timestep time="35.00">
        <vehicle id="background.1" x="17.92" y="-1.60" angle="90.00" type="human" speed="1.75" pos="17.92" lane="e0_0" slope="0.00"/>
        <vehicle id="ego" x="26.48" y="-1.60" angle="90.00" type="ego_type" speed="0.00" pos="26.48" lane="e0_0" slope="0.00"/>
    </timestep>
    <timestep time="35.50">
        <vehicle id="background.1" x="18.34" y="-1.60" angle="90.00" type="human" speed="0.82" pos="18.34" lane="e0_0" slope="0.00"/>
        <vehicle id="ego" x="26.98" y="-1.60" angle="90.00" type="ego_type" speed="1.00" pos="26.98" lane="e0_0" slope="0.00"/>
    </timestep>
    <timestep time="36.00">
        <vehicle id="background.1" x="18.83" y="-1.60" angle="90.00" type="human" speed="0.99" pos="18.83" lane="e0_0" slope="0.00"/>
        <vehicle id="ego" x="27.10" y="-1.60" angle="90.00" type="ego_type" speed="0.25" pos="27.10" lane="e0_0" slope="0.00"/>
    </timestep>
    <timestep time="36.50">
        <vehicle id="background.1" x="19.15" y="-1.60" angle="90.00" type="human" speed="0.64" pos="19.15" lane="e0_0" slope="0.00"/>
        <vehicle id="ego" x="27.48" y="-1.60" angle="90.00" type="ego_type" speed="0.75" pos="27.48" lane="e0_0" slope="0.00"/>
    </timestep>
    <timestep time="37.00">
        <vehicle id="background.1" x="19.46" y="-1.60" angle="90.00" type="human" speed="0.62" pos="19.46" lane="e0_0" slope="0.00"/>
        <vehicle id="ego" x="28.35" y="-1.60" angle="90.00" type="ego_type" speed="1.75" pos="28.35" lane="e0_0" slope="0.00"/>
    </timestep>
    <timestep time="37.50">
        <vehicle id="background.1" x="20.03" y="-1.60" angle="90.00" type="human" speed="1.15" pos="20.03" lane="e0_0" slope="0.00"/>
        <vehicle id="ego" x="29.73" y="-1.60" angle="90.00" type="ego_type" speed="2.75" pos="29.73" lane="e0_0" slope="0.00"/>
    </timestep>
    <timestep time="38.00">
        <vehicle id="background.1" x="21.10" y="-1.60" angle="90.00" type="human" speed="2.14" pos="21.10" lane="e0_0" slope="0.00"/>
        <vehicle id="ego" x="31.10" y="-1.60" angle="90.00" type="ego_type" speed="2.75" pos="31.10" lane="e0_0" slope="0.00"/>
    </timestep>
    <timestep time="38.50">
        <vehicle id="background.1" x="22.17" y="-1.60" angle="90.00" type="human" speed="2.13" pos="22.17" lane="e0_0" slope="0.00"/>
        <vehicle id="ego" x="31.73" y="-1.60" angle="90.00" type="ego_type" speed="1.25" pos="31.73" lane="e0_0" slope="0.00"/>
    </timestep>
    <timestep time="39.00">
        <vehicle id="background.1" x="23.14" y="-1.60" angle="90.00" type="human" speed="1.94" pos="23.14" lane="e0_0" slope="0.00"/>
        <vehicle id="ego" x="32.35" y="-1.60" angle="90.00" type="ego_type" speed="1.25" pos="32.35" lane="e0_0" slope="0.00"/>
    </timestep>
    <timestep time="39.50">
        <vehicle id="background.1" x="23.94" y="-1.60" angle="90.00" type="human" speed="1.60" pos="23.94" lane="e0_0" slope="0.00"/>
        <vehicle id="ego" x="33.48" y="-1.60" angle="90.00" type="ego_type" speed="2.25" pos="33.48" lane="e0_0" slope="0.00"/>
    </timestep>
    <timestep time="40.00">
        <vehicle id="background.1" x="24.75" y="-1.60" angle="90.00" type="human" speed="1.62" pos="24.75" lane="e0_0" slope="0.00"/>
        <vehicle id="ego" x="34.60" y="-1.60" angle="90.00" type="ego_type" speed="2.25" pos="34.60" lane="e0_0" slope="0.00"/>
    </timestep>
    <timestep time="40.50">
        <vehicle id="background.1" x="25.68" y="-1.60" angle="90.00" type="human" speed="1.86" pos="25.68" lane="e0_0" slope="0.00"/>
        <vehicle id="ego" x="34.98" y="-1.60" angle="90.00" type="ego_type" speed="0.75" pos="34.98" lane="e0_0" slope="0.00"/>
    </timestep>
    <timestep time="41.00">
        <vehicle id="background.1" x="26.50" y="-1.60" angle="90.00" type="human" speed="1.64" pos="26.50" lane="e0_0" slope="0.00"/>
        <vehicle id="ego" x="34.98" y="-1.60" angle="90.00" type="ego_type" speed="0.00" pos="34.98" lane="e0_0" slope="0.00"/>
    </timestep>
    <timestep time="41.50">
        <vehicle id="background.1" x="26.91" y="-1.60" angle="90.00" type="human" speed="0.82" pos="26.91" lane="e0_0" slope="0.00"/>
        <vehicle id="ego" x="34.98" y="-1.60" angle="90.00" type="ego_type" speed="0.00" pos="34.98" lane="e0_0" slope="0.00"/>
    </timestep>
    <timestep time="42.00">
        <vehicle id="background.1" x="27.17" y="-1.60" angle="90.00" type="human" speed="0.53" pos="27.17" lane="e0_0" slope="0.00"/>
        <vehicle id="ego" x="35.23" y="-1.60" angle="90.00" type="ego_type" speed="0.50" pos="35.23" lane="e0_0" slope="0.00"/>
    </timestep>
    <timestep time="42.50">
        <vehicle id="background.1" x="27.42" y="-1.60" angle="90.00" type="human" speed="0.49" pos="27.42" lane="e0_0" slope="0.00"/>
        <vehicle id="background.2" x="5.10" y="-1.60" angle="90.00" type="human" speed="8.63" pos="5.10" lane="e0_0" slope="0.00"/>
        <vehicle id="ego" x="35.48" y="-1.60" angle="90.00" type="ego_type" speed="0.50" pos="35.48" lane="e0_0" slope="0.00"/>
    </timestep>
    <timestep time="43.00">
        <vehicle id="background.1" x="27.66" y="-1.60" angle="90.00" type="human" speed="0.48" pos="27.66" lane="e0_0" slope="0.00"/>
        <vehicle id="background.2" x="9.40" y="-1.60" angle="90.00" type="human" speed="8.61" pos="9.40" lane="e0_0" slope="0.00"/>
        <vehicle id="ego" x="35.48" y="-1.60" angle="90.00" type="ego_type" speed="0.00" pos="35.48" lane="e0_0" slope="0.00"/>
    </timestep>
    <timestep time="43.50">
        <vehicle id="background.1" x="27.81" y="-1.60" angle="90.00" type="human" speed="0.30" pos="27.81" lane="e0_0" slope="0.00"/>
        <vehicle id="background.2" x="12.90" y="-1.60" angle="90.00" type="human" speed="7.00" pos="12.90" lane="e0_0" slope="0.00"/>
        <vehicle id="ego" x="35.98" y="-1.60" angle="90.00" type="ego_type" speed="1.00" pos="35.98" lane="e0_0" slope="0.00"/>
    </timestep>
    <timestep time="44.00">
        <vehicle id="background.1" x="28.10" y="-1.60" angle="90.00" type="human" speed="0.58" pos="28.10" lane="e0_0" slope="0.00"/>
        <vehicle id="background.2" x="15.50" y="-1.60" angle="90.00" type="human" speed="5.19" pos="15.50" lane="e0_0" slope="0.00"/>
        <vehicle id="ego" x="36.10" y="-1.60" angle="90.00" type="ego_type" speed="0.25" pos="36.10" lane="e0_0" slope="0.00"/>
    </timestep>
    <timestep time="44.50">
        <vehicle id="background.1" x="28.34" y="-1.60" angle="90.00" type="human" speed="0.47" pos="28.34" lane="e0_0" slope="0.00"/>
        <vehicle id="background.2" x="17.47" y="-1.60" angle="90.00" type="human" speed="3.94" pos="17.47" lane="e0_0" slope="0.00"/>
        <vehicle id="ego" x="36.23" y="-1.60" angle="90.00" type="ego_type" speed="0.25" pos="36.23" lane="e0_0" slope="0.00"/>
    </timestep>
    <timestep time="45.00">
        <vehicle id="background.1" x="28.49" y="-1.60" angle="90.00" type="human" speed="0.31" pos="28.49" lane="e0_0" slope="0.00"/>
        <vehicle id="background.2" x="18.74" y="-1.60" angle="90.00" type="human" speed="2.53" pos="18.74" lane="e0_0" slope="0.00"/>
        <vehicle id="ego" x="36.23" y="-1.60" angle="90.00" type="ego_type" speed="0.00" pos="36.23" lane="e0_0" slope="0.00"/>
    </timestep>
    <timestep time="45.50">
        <vehicle id="background.1" x="28.59" y="-1.60" angle="90.00" type="human" speed="0.20" pos="28.59" lane="e0_0" slope="0.00"/>
        <vehicle id="background.2" x="19.82" y="-1.60" angle="90.00" type="human" speed="2.17" pos="19.82" lane="e0_0" slope="0.00"/>
        <vehicle id="ego" x="36.23" y="-1.60" angle="90.00" type="ego_type" speed="0.00" pos="36.23" lane="e0_0" slope="0.00"/>
    </timestep>
    <timestep time="46.00">
        <vehicle id="background.1" x="28.65" y="-1.60" angle="90.00" type="human" speed="0.11" pos="28.65" lane="e0_0" slope="0.00"/>
        <vehicle id="background.2" x="20.44" y="-1.60" angle="90.00" type="human" speed="1.23" pos="20.44" lane="e0_0" slope="0.00"/>
        <vehicle id="ego" x="36.23" y="-1.60" angle="90.00" type="ego_type" speed="0.00" pos="36.23" lane="e0_0" slope="0.00"/>
    </timestep>
    <timestep time="46.50">
        <vehicle id="background.1" x="28.69" y="-1.60" angle="90.00" type="human" speed="0.07" pos="28.69" lane="e0_0" slope="0.00"/>
        <vehicle id="background.2" x="20.74" y="-1.60" angle="90.00" type="human" speed="0.61" pos="20.74" lane="e0_0" slope="0.00"/>
        <vehicle id="ego" x="36.48" y="-1.60" angle="90.00" type="ego_type" speed="0.50" pos="36.48" lane="e0_0" slope="0.00"/>
    </timestep>
    <timestep time="47.00">
        <vehicle id="background.1" x="28.82" y="-1.60" angle="90.00" type="human" speed="0.26" pos="28.82" lane="e0_0" slope="0.00"/>
        <vehicle id="background.2" x="20.96" y="-1.60" angle="90.00" type="human" speed="0.44" pos="20.96" lane="e0_0" slope="0.00"/>
        <vehicle id="ego" x="36.48" y="-1.60" angle="90.00" type="ego_type" speed="0.00" pos="36.48" lane="e0_0" slope="0.00"/>
    </timestep>
    <timestep time="47.50">
        <vehicle id="background.1" x="28.89" y="-1.60" angle="90.00" type="human" speed="0.15" pos="28.89" lane="e0_0" slope="0.00"/>
        <vehicle id="background.2" x="21.10" y="-1.60" angle="90.00" type="human" speed="0.26" pos="21.10" lane="e0_0" slope="0.00"/>
        <vehicle id="ego" x="36.98" y="-1.60" angle="90.00" type="ego_type" speed="1.00" pos="36.98" lane="e0_0" slope="0.00"/>
    </timestep>
    <timestep time="48.00">
        <vehicle id="background.1" x="29.15" y="-1.60" angle="90.00" type="human" speed="0.51" pos="29.15" lane="e0_0" slope="0.00"/>
        <vehicle id="background.2" x="21.23" y="-1.60" angle="90.00" type="human" speed="0.27" pos="21.23" lane="e0_0" slope="0.00"/>
        <vehicle id="ego" x="37.73" y="-1.60" angle="90.00" type="ego_type" speed="1.50" pos="37.73" lane="e0_0" slope="0.00"/>
    </timestep>
    <timestep time="48.50">
        <vehicle id="background.1" x="29.68" y="-1.60" angle="90.00" type="human" speed="1.07" pos="29.68" lane="e0_0" slope="0.00"/>
        <vehicle id="background.2" x="21.44" y="-1.60" angle="90.00" type="human" speed="0.41" pos="21.44" lane="e0_0" slope="0.00"/>
        <vehicle id="ego" x="37.73" y="-1.60" angle="90.00" type="ego_type" speed="0.00" pos="37.73" lane="e0_0" slope="0.00"/>
    </timestep>
    <timestep time="49.00">
        <vehicle id="background.1" x="29.89" y="-1.60" angle="90.00" type="human" speed="0.41" pos="29.89" lane="e0_0" slope="0.00"/>
        <vehicle id="background.2" x="21.75" y="-1.60" angle="90.00" type="human" speed="0.63" pos="21.75" lane="e0_0" slope="0.00"/>
        <vehicle id="ego" x="37.97" y="-1.60" angle="90.00" type="ego_type" speed="0.50" pos="37.98" lane="e0_0" slope="0.00"/>
    </timestep>
    <timestep time="49.50">
        <vehicle id="background.1" x="30.13" y="-1.60" angle="90.00" type="human" speed="0.48" pos="30.13" lane="e0_0" slope="0.00"/>
        <vehicle id="background.2" x="22.02" y="-1.60" angle="90.00" type="human" speed="0.52" pos="22.02" lane="e0_0" slope="0.00"/>
        <vehicle id="ego" x="38.48" y="-1.60" angle="90.00" type="ego_type" speed="1.00" pos="38.48" lane="e0_0" slope="0.00"/>
    </timestep>
    <timestep time="50.00">
        <vehicle id="background.1" x="30.45" y="-1.60" angle="90.00" type="human" speed="0.66" pos="30.45" lane="e0_0" slope="0.00"/>
        <vehicle id="background.2" x="22.32" y="-1.60" angle="90.00" type="human" speed="0.60" pos="22.32" lane="e0_0" slope="0.00"/>