<?xml version="1.0" encoding="UTF-8"?>

<!-- generated on 2026-05-15 22:31:53 by Eclipse SUMO sumo Version 1.24.0
<sumoConfiguration xmlns:xsi="http://www.w3.org/2001/XMLSchema-instance" xsi:noNamespaceSchemaLocation="http://sumo.dlr.de/xsd/sumoConfiguration.xsd">

    <input>
        <net-file value="scenarios/simple_arterial/simple_arterial.net.xml"/>
        <route-files value="scenarios/simple_arterial/simple_arterial.rou.xml"/>
        <additional-files value="scenarios/simple_arterial/simple_arterial.tls.xml"/>
    </input>

    <output>
        <fcd-output value="runs/fcd_random/episode_00001_seed_43.fcd.xml"/>
    </output>

    <time>
        <begin value="0"/>
        <end value="900"/>
        <step-length value="0.5"/>
    </time>

    <report>
        <no-warnings value="true"/>
    </report>

    <traci_server>
        <remote-port value="21507"/>
    </traci_server>

    <random_number>
        <seed value="43"/>
    </random_number>

</sumoConfiguration>
-->

<fcd-export xmlns:xsi="http://www.w3.org/2001/XMLSchema-instance" xsi:noNamespaceSchemaLocation="http://sumo.dlr.de/xsd/fcd_file.xsd">
    <timestep time="0.00"/>
    <timestep time="0.50"/>
    <timestep time="1.00"/>
    <timestep time="1.50"/>
    <timestep time="2.00"/>
    <timestep time="2.50"/>
    <timestep time="3.00"/>
    <timestep time="3.50"/>
    <timestep time="4.00"/>
    <timestep time="4.50"/>
    <timestep time="5.00"/>
    <timestep time="5.50"/>
    <timestep time="6.00"/>
    <timestep time="6.50"/>
    <timestep time="7.00"/>
    <timestep time="7.50"/>
    <timestep time="8.00">
        <vehicle id="background.0" x="5.10" y="-1.60" angle="90.00" type="human" speed="12.47" pos="5.10" lane="e0_0" slope="0.00"/>
    </timestep>
    <timestep time="8.50">
        <vehicle id="background.0" x="11.13" y="-1.60" angle="90.00" type="human" speed="12.05" pos="11.13" lane="e0_0" slope="0.00"/>
    </timestep>
    <timestep time="9.00">
        <vehicle id="background.0" x="17.25" y="-1.60" angle="90.00" type="human" speed="12.25" pos="17.25" lane="e0_0" slope="0.00"/>
    </timestep>
    <timestep time="9.50">
        <vehicle id="background.0" x="23.46" y="-1.60" angle="90.00" type="human" speed="12.42" pos="23.46" lane="e0_0" slope="0.00"/>
    </timestep>
    <timestep time="10.00">
        <vehicle id="background.0" x="29.69" y="-1.60" angle="90.00" type="human" speed="12.45" pos="29.69" lane="e0_0" slope="0.00"/>
    </timestep>
    <timestep time="10.50">
        <vehicle id="background.0" x="35.74" y="-1.60" angle="90.00" type="human" speed="12.10" pos="35.74" lane="e0_0" slope="0.00"/>
    </timestep>
    <timestep time="11.00">
        <vehicle id="background.0" x="41.81" y="-1.60" angle="90.00" type="human" speed="12.16" pos="41.81" lane="e0_0" slope="0.00"/>
    </timestep>
    <timestep time="11.50">
        <vehicle id="background.0" x="47.96" y="-1.60" angle="90.00" type="human" speed="12.29" pos="47.96" lane="e0_0" slope="0.00"/>
        <vehicle id="background.1" x="5.10" y="-1.60" angle="90.00" type="human" speed="13.89" pos="5.10" lane="e0_0" slope="0.00"/>
    </timestep>
    <timestep time="12.00">
        <vehicle id="background.0" x="54.15" y="-1.60" angle="90.00" type="human" speed="12.38" pos="54.15" lane="e0_0" slope="0.00"/>
        <vehicle id="background.1" x="11.96" y="-1.60" angle="90.00" type="human" speed="13.71" pos="11.96" lane="e0_0" slope="0.00"/>
    </timestep>
    <timestep time="12.50">
        <vehicle id="background.0" x="60.31" y="-1.60" angle="90.00" type="human" speed="12.32" pos="60.31" lane="e0_0" slope="0.00"/>
        <vehicle id="background.1" x="18.75" y="-1.60" angle="90.00" type="human" speed="13.59" pos="18.75" lane="e0_0" slope="0.00"/>
    </timestep>
    <timestep time="13.00">
        <vehicle id="background.0" x="66.48" y="-1.60" angle="90.00" type="human" speed="12.34" pos="66.48" lane="e0_0" slope="0.00"/>
        <vehicle id="background.1" x="25.59" y="-1.60" angle="90.00" type="human" speed="13.69" pos="25.59" lane="e0_0" slope="0.00"/>
    </timestep>
    <timestep time="13.50">
        <vehicle id="background.0" x="72.54" y="-1.60" angle="90.00" type="human" speed="12.13" pos="72.54" lane="e0_0" slope="0.00"/>
        <vehicle id="background.1" x="32.44" y="-1.60" angle="90.00" type="human" speed="13.69" pos="32.44" lane="e0_0" slope="0.00"/>
    </timestep>
    <timestep time="14.00">
        <vehicle id="background.0" x="78.71" y="-1.60" angle="90.00" type="human" speed="12.33" pos="78.71" lane="e0_0" slope="0.00"/>
        <vehicle id="background.1" x="39.25" y="-1.60" angle="90.00" type="human" speed="13.64" pos="39.25" lane="e0_0" slope="0.00"/>
    </timestep>
    <timestep time="14.50">
        <vehicle id="background.0" x="84.71" y="-1.60" angle="90.00" type="human" speed="12.01" pos="84.71" lane="e0_0" slope="0.00"/>
        <vehicle id="background.1" x="46.02" y="-1.60" angle="90.00" type="human" speed="13.53" pos="46.02" lane="e0_0" slope="0.00"/>
    </timestep>
    <timestep time="15.00">
        <vehicle id="background.0" x="90.89" y="-1.60" angle="90.00" type="human" speed="12.36" pos="90.89" lane="e0_0" slope="0.00"/>
        <vehicle id="background.1" x="52.73" y="-1.60" angle="90.00" type="human" speed="13.41" pos="52.73" lane="e0_0" slope="0.00"/>
    </timestep>
    <timestep time="15.50">
        <vehicle id="background.0" x="96.97" y="-1.60" angle="90.00" type="human" speed="12.15" pos="96.97" lane="e0_0" slope="0.00"/>
        <vehicle id="background.1" x="59.56" y="-1.60" angle="90.00" type="human" speed="13.66" pos="59.56" lane="e0_0" slope="0.00"/>
    </timestep>
    <timestep time="16.00">
        <vehicle id="background.0" x="103.00" y="-1.60" angle="90.00" type="human" speed="12.07" pos="103.00" lane="e0_0" slope="0.00"/>
        <vehicle id="background.1" x="66.40" y="-1.60" angle="90.00" type="human" speed="13.68" pos="66.40" lane="e0_0" slope="0.00"/>
    </timestep>
    <timestep time="16.50">
        <vehicle id="background.0" x="109.11" y="-1.60" angle="90.00" type="human" speed="12.20" pos="109.11" lane="e0_0" slope="0.00"/>
        <vehicle id="background.1" x="73.31" y="-1.60" angle="90.00" type="human" speed="13.83" pos="73.31" lane="e0_0" slope="0.00"/>
    </timestep>
    <timestep time="17.00">
        <vehicle id="background.0" x="115.30" y="-1.60" angle="90.00" type="human" speed="12.38" pos="115.30" lane="e0_0" slope="0.00"/>
        <vehicle id="background.1" x="80.20" y="-1.60" angle="90.00" type="human" speed="13.78" pos="80.20" lane="e0_0" slope="0.00"/>
    </timestep>
    <timestep time="17.50">
        <vehicle id="background.0" x="121.49" y="-1.60" angle="90.00" type="human" speed="12.38" pos="121.49" lane="e0_0" slope="0.00"/>
        <vehicle id="background.1" x="86.91" y="-1.60" angle="90.00" type="human" speed="13.41" pos="86.91" lane="e0_0" slope="0.00"/>
    </timestep>
    <timestep time="18.00">
        <vehicle id="background.0" x="127.54" y="-1.60" angle="90.00" type="human" speed="12.10" pos="127.54" lane="e0_0" slope="0.00"/>
        <vehicle id="background.1" x="93.62" y="-1.60" angle="90.00" type="human" speed="13.42" pos="93.62" lane="e0_0" slope="0.00"/>
    </timestep>
    <timestep time="18.50">
        <vehicle id="background.0" x="133.67" y="-1.60" angle="90.00" type="human" speed="12.27" pos="133.67" lane="e0_0" slope="0.00"/>
        <vehicle id="background.1" x="100.34" y="-1.60" angle="90.00" type="human" speed="13.45" pos="100.34" lane="e0_0" slope="0.00"/>
    </timestep>
    <timestep time="19.00">
        <vehicle id="background.0" x="139.78" y="-1.60" angle="90.00" type="human" speed="12.21" pos="139.78" lane="e0_0" slope="0.00"/>
        <vehicle id="background.1" x="107.13" y="-1.60" angle="90.00" type="human" speed="13.57" pos="107.13" lane="e0_0" slope="0.00"/>
    </timestep>
    <timestep time="19.50">
        <vehicle id="background.0" x="146.00" y="-1.60" angle="90.00" type="human" speed="12.45" pos="146.00" lane="e0_0" slope="0.00"/>
        <vehicle id="background.1" x="114.02" y="-1.60" angle="90.00" type="human" speed="13.78" pos="114.02" lane="e0_0" slope="0.00"/>
    </timestep>
    <timestep time="20.00">
        <vehicle id="background.0" x="152.12" y="-1.60" angle="90.00" type="human" speed="12.23" pos="152.12" lane="e0_0" slope="0.00"/>
        <vehicle id="background.1" x="120.80" y="-1.60" angle="90.00" type="human" speed="13.57" pos="120.80" lane="e0_0" slope="0.00"/>
    </timestep>
    <timestep time="20.50">
        <vehicle id="background.0" x="158.35" y="-1.60" angle="90.00" type="human" speed="12.46" pos="158.35" lane="e0_0" slope="0.00"/>
        <vehicle id="background.1" x="127.71" y="-1.60" angle="90.00" type="human" speed="13.82" pos="127.71" lane="e0_0" slope="0.00"/>
    </timestep>
    <timestep time="21.00">
        <vehicle id="background.0" x="164.39" y="-1.60" angle="90.00" type="human" speed="12.07" pos="164.39" lane="e0_0" slope="0.00"/>
        <vehicle id="background.1" x="134.54" y="-1.60" angle="90.00" type="human" speed="13.66" pos="134.54" lane="e0_0" slope="0.00"/>
    </timestep>
    <timestep time="21.50">
        <vehicle id="background.0" x="170.58" y="-1.60" angle="90.00" type="human" speed="12.40" pos="170.58" lane="e0_0" slope="0.00"/>
        <vehicle id="background.1" x="141.27" y="-1.60" angle="90.00" type="human" speed="13.45" pos="141.27" lane="e0_0" slope="0.00"/>
    </timestep>
    <timestep time="22.00">
        <vehicle id="background.0" x="176.75" y="-1.60" angle="90.00" type="human" speed="12.32" pos="176.75" lane="e0_0" slope="0.00"/>
        <vehicle id="background.1" x="148.15" y="-1.60" angle="90.00" type="human" speed="13.76" pos="148.15" lane="e0_0" slope="0.00"/>
    </timestep>
    <timestep time="22.50">
        <vehicle id="background.0" x="182.77" y="-1.60" angle="90.00" type="human" speed="12.04" pos="182.77" lane="e0_0" slope="0.00"/>
        <vehicle id="background.1" x="154.93" y="-1.60" angle="90.00" type="human" speed="13.56" pos="154.93" lane="e0_0" slope="0.00"/>
    </timestep>
    <timestep time="23.00">
        <vehicle id="background.0" x="188.80" y="-1.60" angle="90.00" type="human" speed="12.07" pos="188.80" lane="e0_0" slope="0.00"/>
        <vehicle id="background.1" x="161.55" y="-1.60" angle="90.00" type="human" speed="13.25" pos="161.55" lane="e0_0" slope="0.00"/>
    </timestep>
    <timestep time="23.50">
        <vehicle id="background.0" x="194.94" y="-1.60" angle="90.00" type="human" speed="12.28" pos="194.94" lane="e0_0" slope="0.00"/>
        <vehicle id="background.1" x="168.32" y="-1.60" angle="90.00" type="human" speed="13.52" pos="168.32" lane="e0_0" slope="0.00"/>
    </timestep>
    <timestep time="24.00">
        <vehicle id="background.0" x="200.96" y="-1.60" angle="90.00" type="human" speed="12.05" pos="200.96" lane="e0_0" slope="0.00"/>
        <vehicle id="background.1" x="174.99" y="-1.60" angle="90.00" type="human" speed="13.35" pos="174.99" lane="e0_0" slope="0.00"/>
    </timestep>
    <timestep time="24.50">
        <vehicle id="background.0" x="207.11" y="-1.60" angle="90.00" type="human" speed="12.29" pos="207.11" lane="e0_0" slope="0.00"/>
        <vehicle id="background.1" x="181.62" y="-1.60" angle="90.00" type="human" speed="13.25" pos="181.62" lane="e0_0" slope="0.00"/>
    </timestep>
    <timestep time="25.00">
        <vehicle id="background.0" x="213.12" y="-1.60" angle="90.00" type="human" speed="12.01" pos="213.12" lane="e0_0" slope="0.00"/>
        <vehicle id="background.1" x="188.29" y="-1.60" angle="90.00" type="human" speed="13.34" pos="188.29" lane="e0_0" slope="0.00"/>
    </timestep>
    <timestep time="25.50">
        <vehicle id="background.0" x="219.29" y="-1.60" angle="90.00" type="human" speed="12.35" pos="219.29" lane="e0_0" slope="0.00"/>
        <vehicle id="background.1" x="194.80" y="-1.60" angle="90.00" type="human" speed="13.03" pos="194.80" lane="e0_0" slope="0.00"/>
    </timestep>
    <timestep time="26.00">
        <vehicle id="background.0" x="225.41" y="-1.60" angle="90.00" type="human" speed="12.23" pos="225.41" lane="e0_0" slope="0.00"/>
        <vehicle id="background.1" x="201.39" y="-1.60" angle="90.00" type="human" speed="13.18" pos="201.39" lane="e0_0" slope="0.00"/>
    </timestep>
    <timestep time="26.50">
        <vehicle id="background.0" x="231.48" y="-1.60" angle="90.00" type="human" speed="12.14" pos="231.48" lane="e0_0" slope="0.00"/>
        <vehicle id="background.1" x="207.82" y="-1.60" angle="90.00" type="human" speed="12.86" pos="207.82" lane="e0_0" slope="0.00"/>
    </timestep>
    <timestep time="27.00">
        <vehicle id="background.0" x="237.66" y="-1.60" angle="90.00" type="human" speed="12.36" pos="237.66" lane="e0_0" slope="0.00"/>
        <vehicle id="background.1" x="214.09" y="-1.60" angle="90.00" type="human" speed="12.55" pos="214.09" lane="e0_0" slope="0.00"/>
    </timestep>
    <timestep time="27.50">
        <vehicle id="background.0" x="243.65" y="-1.60" angle="90.00" type="human" speed="11.98" pos="243.65" lane="e0_0" slope="0.00"/>
        <vehicle id="background.1" x="220.40" y="-1.60" angle="90.00" type="human" speed="12.61" pos="220.40" lane="e0_0" slope="0.00"/>
    </timestep>
    <timestep time="28.00">
        <vehicle id="background.0" x="249.86" y="-1.60" angle="90.00" type="human" speed="12.42" pos="249.86" lane="e0_0" slope="0.00"/>
        <vehicle id="background.1" x="226.56" y="-1.60" angle="90.00" type="human" speed="12.33" pos="226.56" lane="e0_0" slope="0.00"/>
    </timestep>
    <timestep time="28.50">
        <vehicle id="background.0" x="255.93" y="-1.60" angle="90.00" type="human" speed="12.14" pos="255.93" lane="e0_0" slope="0.00"/>
        <vehicle id="background.1" x="233.02" y="-1.60" angle="90.00" type="human" speed="12.91" pos="233.02" lane="e0_0" slope="0.00"/>
    </timestep>
    <timestep time="29.00">
        <vehicle id="background.0" x="262.09" y="-1.60" angle="90.00" type="human" speed="12.34" pos="262.09" lane="e0_0" slope="0.00"/>
        <vehicle id="background.1" x="239.28" y="-1.60" angle="90.00" type="human" speed="12.53" pos="239.28" lane="e0_0" slope="0.00"/>
    </timestep>
    <timestep time="29.50">
        <vehicle id="background.0" x="268.20" y="-1.60" angle="90.00" type="human" speed="12.21" pos="268.20" lane="e0_0" slope="0.00"/>
        <vehicle id="background.1" x="245.73" y="-1.60" angle="90.00" type="human" speed="12.90" pos="245.73" lane="e0_0" slope="0.00"/>
    </timestep>
    <timestep time="30.00">
        <vehicle id="background.0" x="274.33" y="-1.60" angle="90.00" type="human" speed="12.26" pos="274.33" lane="e0_0" slope="0.00"/>
        <vehicle id="background.1" x="251.94" y="-1.60" angle="90.00" type="human" speed="12.41" pos="251.94" lane="e0_0" slope="0.00"/>
        <vehicle id="background.2" x="5.10" y="-1.60" angle="90.00" type="human" speed="13.16" pos="5.10" lane="e0_0" slope="0.00"/>
    </timestep>
    <timestep time="30.50">
        <vehicle id="background.0" x="280.47" y="-1.60" angle="90.00" type="human" speed="12.27" pos="280.47" lane="e0_0" slope="0.00"/>
        <vehicle id="background.1" x="258.31" y="-1.60" angle="90.00" type="human" speed="12.75" pos="258.31" lane="e0_0" slope="0.00"/>
        <vehicle id="background.2" x="11.44" y="-1.60" angle="90.00" type="human" speed="12.67" pos="11.44" lane="e0_0" slope="0.00"/>
    </timestep>
    <timestep time="31.00">
        <vehicle id="background.0" x="286.48" y="-1.60" angle="90.00" type="human" speed="12.03" pos="286.48" lane="e0_0" slope="0.00"/>
        <vehicle id="background.1" x="264.63" y="-1.60" angle="90.00" type="human" speed="12.63" pos="264.63" lane="e0_0" slope="0.00"/>
        <vehicle id="background.2" x="17.84" y="-1.60" angle="90.00" type="human" speed="12.80" pos="17.84" lane="e0_0" slope="0.00"/>
    </timestep>
    <timestep time="31.50">
        <vehicle id="background.0" x="292.52" y="-1.60" angle="90.00" type="human" speed="12.07" pos="292.52" lane="e0_0" slope="0.00"/>
        <vehicle id="background.1" x="270.67" y="-1.60" angle="90.00" type="human" speed="12.08" pos="270.67" lane="e0_0" slope="0.00"/>
        <vehicle id="background.2" x="24.26" y="-1.60" angle="90.00" type="human" speed="12.85" pos="24.26" lane="e0_0" slope="0.00"/>
    </timestep>
    <timestep time="32.00">
        <vehicle id="background.0" x="298.57" y="-1.60" angle="90.00" type="human" speed="12.11" pos="298.57" lane="e0_0" slope="0.00"/>
        <vehicle id="background.1" x="276.75" y="-1.60" angle="90.00" type="human" speed="12.15" pos="276.75" lane="e0_0" slope="0.00"/>
        <vehicle id="background.2" x="30.67" y="-1.60" angle="90.00" type="human" speed="12.81" pos="30.67" lane="e0_0" slope="0.00"/>
    </timestep>
    <timestep time="32.50">
        <vehicle id="background.0" x="304.69" y="-1.60" angle="90.00" type="human" speed="12.44" pos="4.69" lane="e1_0" slope="0.00"/>
        <vehicle id="background.1" x="282.79" y="-1.60" angle="90.00" type="human" speed="12.09" pos="282.79" lane="e0_0" slope="0.00"/>
        <vehicle id="background.2" x="37.23" y="-1.60" angle="90.00" type="human" speed="13.12" pos="37.23" lane="e0_0" slope="0.00"/>
    </timestep>
    <timestep time="33.00">
        <vehicle id="background.0" x="310.68" y="-1.60" angle="90.00" type="human" speed="11.97" pos="10.68" lane="e1_0" slope="0.00"/>
        <vehicle id="background.1" x="289.00" y="-1.60" angle="90.00" type="human" speed="12.41" pos="289.00" lane="e0_0" slope="0.00"/>
        <vehicle id="background.2" x="43.76" y="-1.60" angle="90.00" type="human" speed="13.07" pos="43.76" lane="e0_0" slope="0.00"/>
    </timestep>
    <timestep time="33.50">
        <vehicle id="background.0" x="316.84" y="-1.60" angle="90.00" type="human" speed="12.32" pos="16.84" lane="e1_0" slope="0.00"/>
        <vehicle id="background.1" x="295.19" y="-1.60" angle="90.00" type="human" speed="12.39" pos="295.19" lane="e0_0" slope="0.00"/>
        <vehicle id="background.2" x="50.13" y="-1.60" angle="90.00" type="human" speed="12.75" pos="50.13" lane="e0_0" slope="0.00"/>
    </timestep>
    <timestep time="34.00">
        <vehicle id="background.0" x="322.94" y="-1.60" angle="90.00" type="human" speed="12.19" pos="22.94" lane="e1_0" slope="0.00"/>
        <vehicle id="background.1" x="301.33" y="-1.60" angle="90.00" type="human" speed="12.47" pos="1.33" lane="e1_0" slope="0.00"/>
        <vehicle id="background.2" x="56.47" y="-1.60" angle="90.00" type="human" speed="12.68" pos="56.47" lane="e0_0" slope="0.00"/>
    </timestep>
    <timestep time="34.50">
        <vehicle id="background.0" x="329.00" y="-1.60" angle="90.00" type="human" speed="12.13" pos="29.00" lane="e1_0" slope="0.00"/>
        <vehicle id="background.1" x="307.55" y="-1.60" angle="90.00" type="human" speed="12.44" pos="7.55" lane="e1_0" slope="0.00"/>
        <vehicle id="background.2" x="62.93" y="-1.60" angle="90.00" type="human" speed="12.91" pos="62.93" lane="e0_0" slope="0.00"/>
    </timestep>
    <timestep time="35.00">
        <vehicle id="background.0" x="335.13" y="-1.60" angle="90.00" type="human" speed="12.26" pos="35.13" lane="e1_0" slope="0.00"/>
        <vehicle id="background.1" x="313.78" y="-1.60" angle="90.00" type="human" speed="12.46" pos="13.78" lane="e1_0" slope="0.00"/>
        <vehicle id="background.2" x="69.36" y="-1.60" angle="90.00" type="human" speed="12.86" pos="69.36" lane="e0_0" slope="0.00"/>
    </timestep>
    <timestep time="35.50">
        <vehicle id="background.0" x="341.13" y="-1.60" angle="90.00" type="human" speed="11.99" pos="41.13" lane="e1_0" slope="0.00"/>
        <vehicle id="background.1" x="319.95" y="-1.60" angle="90.00" type="human" speed="12.36" pos="19.95" lane="e1_0" slope="0.00"/>
        <vehicle id="background.2" x="75.91" y="-1.60" angle="90.00" type="human" speed="13.11" pos="75.91" lane="e0_0" slope="0.00"/>
    </timestep>
    <timestep time="36.00">
        <vehicle id="background.0" x="347.13" y="-1.60" angle="90.00" type="human" speed="12.01" pos="47.13" lane="e1_0" slope="0.00"/>
        <vehicle id="background.1" x="326.00" y="-1.60" angle="90.00" type="human" speed="12.09" pos="26.00" lane="e1_0" slope="0.00"/>
        <vehicle id="background.2" x="82.46" y="-1.60" angle="90.00" type="human" speed="13.11" pos="82.46" lane="e0_0" slope="0.00"/>
    </timestep>
    <timestep time="36.50">
        <vehicle id="background.1" x="332.16" y="-1.60" angle="90.00" type="human" speed="12.31" pos="32.16" lane="e1_0" slope="0.00"/>
        <vehicle id="background.2" x="89.01" y="-1.60" angle="90.00" type="human" speed="13.08" pos="89.01" lane="e0_0" slope="0.00"/>
    </timestep>
    <timestep time="37.00">
        <vehicle id="background.1" x="338.63" y="-1.60" angle="90.00" type="human" speed="12.95" pos="38.63" lane="e1_0" slope="0.00"/>
        <vehicle id="background.2" x="95.57" y="-1.60" angle="90.00" type="human" speed="13.13" pos="95.57" lane="e0_0" slope="0.00"/>
    </timestep>
    <timestep time="37.50">
        <vehicle id="background.1" x="345.54" y="-1.60" angle="90.00" type="human" speed="13.81" pos="45.54" lane="e1_0" slope="0.00"/>
        <vehicle id="background.2" x="101.91" y="-1.60" angle="90.00" type="human" speed="12.67" pos="101.91" lane="e0_0" slope="0.00"/>
    </timestep>
    <timestep time="38.00">
        <vehicle id="background.2" x="108.32" y="-1.60" angle="90.00" type="human" speed="12.83" pos="108.32" lane="e0_0" slope="0.00"/>
    </timestep>
    <timestep time="38.50">
        <vehicle id="background.2" x="114.84" y="-1.60" angle="90.00" type="human" speed="13.02" pos="114.84" lane="e0_0" slope="0.00"/>
    </timestep>
    <timestep time="39.00">
        <vehicle id="background.2" x="121.21" y="-1.60" angle="90.00" type="human" speed="12.74" pos="121.21" lane="e0_0" slope="0.00"/>
    </timestep>
    <timestep time="39.50">
        <vehicle id="background.2" x="127.56" y="-1.60" angle="90.00" type="human" speed="12.71" pos="127.56" lane="e0_0" slope="0.00"/>
    </timestep>
    <timestep time="40.00">
        <vehicle id="background.2" x="133.92" y="-1.60" angle="90.00" type="human" speed="12.71" pos="133.92" lane="e0_0" slope="0.00"/>
    </timestep>
    <timestep time="40.50">
        <vehicle id="background.2" x="140.46" y="-1.60" angle="90.00" type="human" speed="13.08" pos="140.46" lane="e0_0" slope="0.00"/>
    </timestep>
    <timestep time="41.00">
        <vehicle id="background.2" x="146.79" y="-1.60" angle="90.00" type="human" speed="12.67" pos="146.79" lane="e0_0" slope="0.00"/>
    </timestep>
    <timestep time="41.50">
        <vehicle id="background.2" x="153.34" y="-1.60" angle="90.00" type="human" speed="13.09" pos="153.34" lane="e0_0" slope="0.00"/>
    </timestep>
    <timestep time="42.00">
        <vehicle id="background.2" x="159.77" y="-1.60" angle="90.00" type="human" speed="12.86" pos="159.77" lane="e0_0" slope="0.00"/>
    </timestep>
    <timestep time="42.50">
        <vehicle id="background.2" x="166.27" y="-1.60" angle="90.00" type="human" speed="13.00" pos="166.27" lane="e0_0" slope="0.00"/>
    </timestep>
    <timestep time="43.00">
        <vehicle id="background.2" x="172.68" y="-1.60" angle="90.00" type="human" speed="12.82" pos="172.68" lane="e0_0" slope="0.00"/>
    </timestep>
    <timestep time="43.50">
        <vehicle id="background.2" x="179.19" y="-1.60" angle="90.00" type="human" speed="13.01" pos="179.19" lane="e0_0" slope="0.00"/>
    </timestep>
    <timestep time="44.00">
        <vehicle id="background.2" x="185.67" y="-1.60" angle="90.00" type="human" speed="12.97" pos="185.67" lane="e0_0" slope="0.00"/>
    </timestep>
    <timestep time="44.50">
        <vehicle id="background.2" x="192.14" y="-1.60" angle="90.00" type="human" speed="12.95" pos="192.14" lane="e0_0" slope="0.00"/>
    </timestep>
    <timestep time="45.00">
        <vehicle id="background.2" x="198.66" y="-1.60" angle="90.00" type="human" speed="13.03" pos="198.66" lane="e0_0" slope="0.00"/>
    </timestep>
    <timestep time="45.50">
        <vehicle id="background.2" x="205.16" y="-1.60" angle="90.00" type="human" speed="13.00" pos="205.16" lane="e0_0" slope="0.00"/>
    </timestep>
    <timestep time="46.00">
        <vehicle id="background.2" x="211.60" y="-1.60" angle="90.00" type="human" speed="12.89" pos="211.60" lane="e0_0" slope="0.00"/>
    </timestep>
    <timestep time="46.50">
        <vehicle id="background.2" x="218.04" y="-1.60" angle="90.00" type="human" speed="12.88" pos="218.04" lane="e0_0" slope="0.00"/>
    </timestep>
    <timestep time="47.00">
        <vehicle id="background.2" x="224.40" y="-1.60" angle="90.00" type="human" speed="12.72" pos="224.40" lane="e0_0" slope="0.00"/>
    </timestep>
    <timestep time="47.50">
        <vehicle id="background.2" x="230.96" y="-1.60" angle="90.00" type="human" speed="13.11" pos="230.96" lane="e0_0" slope="0.00"/>
    </timestep>
    <timestep time="48.00">
        <vehicle id="background.2" x="237.34" y="-1.60" angle="90.00" type="human" speed="12.77" pos="237.34" lane="e0_0" slope="0.00"/>
    </timestep>
    <timestep time="48.50">
        <vehicle id="background.2" x="243.72" y="-1.60" angle="90.00" type="human" speed="12.76" pos="243.72" lane="e0_0" slope="0.00"/>
    </timestep>
    <timestep time="49.00">
        <vehicle id="background.2" x="250.30" y="-1.60" angle="90.00" type="human" speed="13.15" pos="250.30" lane="e0_0" slope="0.00"/>
    </timestep>
    <timestep time="49.50">
        <vehicle id="background.2" x="256.81" y="-1.60" angle="90.00" type="human" speed="13.03" pos="256.81" lane="e0_0" slope="0.00"/>
    </timestep>
    <timestep time="50.00">
        <vehicle id="background.2" x="263.23" y="-1.60" angle="90.00" type="human" speed="12.83" pos="263.23" lane="e0_0" slope="0.00"/>
    </timestep>
    <timestep time="50.50">
        <vehicle id="background.2" x="269.58" y="-1.60" angle="90.00" type="human" speed="12.71" pos="269.58" lane="e0_0" slope="0.00"/>
    </timestep>
    <timestep time="51.00">
        <vehicle id="background.2" x="275.63" y="-1.60" angle="90.00" type="human" speed="12.10" pos="275.63" lane="e0_0" slope="0.00"/>
    </timestep>
    <timestep time="51.50">
        <vehicle id="background.2" x="280.95" y="-1.60" angle="90.00" type="human" speed="10.64" pos="280.95" lane="e0_0" slope="0.00"/>
    </timestep>
    <timestep time="52.00">
        <vehicle id="background.2" x="285.73" y="-1.60" angle="90.00" type="human" speed="9.56" pos="285.73" lane="e0_0" slope="0.00"/>
    </timestep>
    <timestep time="52.50">
        <vehicle id="background.2" x="289.81" y="-1.60" angle="90.00" type="human" speed="8.16" pos="289.81" lane="e0_0" slope="0.00"/>
    </timestep>
    <timestep time="53.00">
        <vehicle id="background.2" x="293.15" y="-1.60" angle="90.00" type="human" speed="6.66" pos="293.15" lane="e0_0" slope="0.00"/>
    </timestep>
    <timestep time="53.50">
        <vehicle id="background.2" x="295.73" y="-1.60" angle="90.00" type="human" speed="5.16" pos="295.73" lane="e0_0" slope="0.00"/>
    </timestep>
    <timestep time="54.00">
        <vehicle id="background.2" x="297.56" y="-1.60" angle="90.00" type="human" speed="3.66" pos="297.56" lane="e0_0" slope="0.00"/>
    </timestep>
    <timestep time="54.50">
        <vehicle id="background.2" x="298.64" y="-1.60" angle="90.00" type="human" speed="2.16" pos="298.64" lane="e0_0" slope="0.00"/>
    </timestep>
    <timestep time="55.00">
        <vehicle id="background.2" x="298.98" y="-1.60" angle="90.00" type="human" speed="0.66" pos="298.98" lane="e0_0" slope="0.00"/>
    </timestep>
    <timestep time="55.50">
        <vehicle id="background.2" x="299.00" y="-1.60" angle="90.00" type="human" speed="0.05" pos="299.00" lane="e0_0" slope="0.00"/>
    </timestep>
    <timestep time="56.00">
        <vehicle id="background.2" x="299.00" y="-1.60" angle="90.00" type="human" speed="0.00" pos="299.00" lane="e0_0" slope="0.00"/>
    </timestep>
    <timestep time="56.50">
        <vehicle id="background.2" x="299.00" y="-1.60" angle="90.00" type="human" speed="0.00" pos="299.00" lane="e0_0" slope="0.00"/>
    </timestep>
    <timestep time="57.00">
        <vehicle id="background.2" x="299.00" y="-1.60" angle="90.00" type="human" speed="0.00" pos="299.00" lane="e0_0" slope="0.00"/>
    </timestep>
    <timestep time="57.50">
        <vehicle id="background.2" x="299.00" y="-1.60" angle="90.00" type="human" speed="0.00" pos="299.00" lane="e0_0" slope="0.00"/>
    </timestep>
    <timestep time="58.00">
        <vehicle id="background.2" x="299.00" y="-1.60" angle="90.00" type="human" speed="0.00" pos="299.00" lane="e0_0" slope="0.00"/>
    </timestep>
    <timestep time="58.50">
        <vehicle id="background.2" x="299.00" y="-1.60" angle="90.00" type="human" speed="0.00" pos="299.00" lane="e0_0" slope="0.00"/>
        <vehicle id="background.3" x="5.10" y="-1.60" angle="90.00" type="human" speed="13.10" pos="5.10" lane="e0_0" slope="0.00"/>
    </timestep>
    <timestep time="59.00">
        <vehicle id="background.2" x="299.00" y="-1.60" angle="90.00" type="human" speed="0.00" pos="299.00" lane="e0_0" slope="0.00"/>
        <vehicle id="background.3" x="11.48" y="-1.60" angle="90.00" type="human" speed="12.76" pos="11.48" lane="e0_0" slope="0.00"/>
    </timestep>
    <timestep time="59.50">
        <vehicle id="background.2" x="299.00" y="-1.60" angle="90.00" type="human" speed="0.00" pos="299.00" lane="e0_0" slope="0.00"/>
        <vehicle id="background.3" x="17.87" y="-1.60" angle="90.00" type="human" speed="12.79" pos="17.87" lane="e0_0" slope="0.00"/>
        <vehicle id="ego" x="5.10" y="-1.60" angle="90.00" type="ego_type" speed="0.57" pos="5.10" lane="e0_0" slope="0.00"/>
    </timestep>
    <timestep time="60.00">
        <vehicle id="background.2" x="299.00" y="-1.60" angle="90.00" type="human" speed="0.00" pos="299.00" lane="e0_0" slope="0.00"/>