<?xml version="1.0" encoding="UTF-8"?>

<!-- generated on 2026-05-13 21:24:58 by Eclipse SUMO sumo Version 1.24.0
<sumoConfiguration xmlns:xsi="http://www.w3.org/2001/XMLSchema-instance" xsi:noNamespaceSchemaLocation="http://sumo.dlr.de/xsd/sumoConfiguration.xsd">

    <input>
        <net-file value="scenarios/simple_arterial/simple_arterial.net.xml"/>
        <route-files value="scenarios/simple_arterial/simple_arterial.rou.xml"/>
        <additional-files value="scenarios/simple_arterial/simple_arterial.tls.xml"/>
    </input>

    <output>
        <fcd-output value="runs/fcd_random/episode_00019_seed_119.fcd.xml"/>
    </output>

    <time>
        <begin value="0"/>
        <end value="900"/>
        <step-length value="0.5"/>
    </time>

    <report>
        <no-warnings value="true"/>
    </report>

    <traci_server>
        <remote-port value="30543"/>
    </traci_server>

    <random_number>
        <seed value="119"/>
    </random_number>

</sumoConfiguration>
-->

<fcd-export xmlns:xsi="http://www.w3.org/2001/XMLSchema-instance" xsi:noNamespaceSchemaLocation="http://sumo.dlr.de/xsd/fcd_file.xsd">
    <timestep time="0.00"/>
    <timestep time="0.50"/>
    <timestep time="1.00"/>
    <timestep time="1.50"/>
    <timestep time="2.00"/>
    <timestep time="2.50"/>
    <timestep time="3.00"/>
    <timestep time="3.50"/>
    <timestep time="4.00"/>
    <timestep time="4.50"/>
    <timestep time="5.00"/>
    <timestep time="5.50"/>
    <timestep time="6.00"/>
    <timestep time="6.50"/>
    <timestep time="7.00"/>
    <timestep time="7.50"/>
    <timestep time="8.00"/>
    <timestep time="8.50"/>
    <timestep time="9.00"/>
    <timestep time="9.50"/>
    <timestep time="10.00"/>
    <timestep time="10.50"/>
    <timestep time="11.00"/>
    <timestep time="11.50"/>
    <timestep time="12.00"/>
    <timestep time="12.50"/>
    <timestep time="13.00"/>
    <timestep time="13.50"/>
    <timestep time="14.00"/>
    <timestep time="14.50"/>
    <timestep time="15.00"/>
    <timestep time="15.50"/>
    <timestep time="16.00"/>
    <timestep time="16.50"/>
    <timestep time="17.00"/>
    <timestep time="17.50"/>
    <timestep time="18.00"/>
    <timestep time="18.50"/>
    <timestep time="19.00"/>
    <timestep time="19.50"/>
    <timestep time="20.00"/>
    <timestep time="20.50"/>
    <timestep time="21.00"/>
    <timestep time="21.50"/>
    <timestep time="22.00"/>
    <timestep time="22.50"/>
    <timestep time="23.00"/>
    <timestep time="23.50"/>
    <timestep time="24.00"/>
    <timestep time="24.50"/>
    <timestep time="25.00"/>
    <timestep time="25.50"/>
    <timestep time="26.00"/>
    <timestep time="26.50"/>
    <timestep time="27.00"/>
    <timestep time="27.50"/>
    <timestep time="28.00"/>
    <timestep time="28.50"/>
    <timestep time="29.00"/>
    <timestep time="29.50"/>
    <timestep time="30.00"/>
    <timestep time="30.50"/>
    <timestep time="31.00"/>
    <timestep time="31.50"/>
    <timestep time="32.00"/>
    <timestep time="32.50"/>
    <timestep time="33.00"/>
    <timestep time="33.50"/>
    <timestep time="34.00"/>
    <timestep time="34.50"/>
    <timestep time="35.00"/>
    <timestep time="35.50"/>
    <timestep time="36.00"/>
    <timestep time="36.50"/>
    <timestep time="37.00"/>
    <timestep time="37.50"/>
    <timestep time="38.00"/>
    <timestep time="38.50"/>
    <timestep time="39.00"/>
    <timestep time="39.50"/>
    <timestep time="40.00"/>
    <timestep time="40.50"/>
    <timestep time="41.00"/>
    <timestep time="41.50"/>
    <timestep time="42.00"/>
    <timestep time="42.50"/>
    <timestep time="43.00"/>
    <timestep time="43.50"/>
    <timestep time="44.00"/>
    <timestep time="44.50"/>
    <timestep time="45.00"/>
    <timestep time="45.50"/>
    <timestep time="46.00"/>
    <timestep time="46.50"/>
    <timestep time="47.00"/>
    <timestep time="47.50"/>
    <timestep time="48.00"/>
    <timestep time="48.50"/>
    <timestep time="49.00"/>
    <timestep time="49.50"/>
    <timestep time="50.00"/>
    <timestep time="50.50"/>
    <timestep time="51.00"/>
    <timestep time="51.50"/>
    <timestep time="52.00"/>
    <timestep time="52.50"/>
    <timestep time="53.00"/>
    <timestep time="53.50"/>
    <timestep time="54.00"/>
    <timestep time="54.50"/>
    <timestep time="55.00"/>
    <timestep time="55.50"/>
    <timestep time="56.00"/>
    <timestep time="56.50"/>
    <timestep time="57.00"/>
    <timestep time="57.50">
        <vehicle id="background.0" x="5.10" y="-1.60" angle="90.00" type="human" speed="13.89" pos="5.10" lane="e0_0" slope="0.00"/>
    </timestep>
    <timestep time="58.00">
        <vehicle id="background.0" x="11.88" y="-1.60" angle="90.00" type="human" speed="13.55" pos="11.88" lane="e0_0" slope="0.00"/>
    </timestep>
    <timestep time="58.50">
        <vehicle id="background.0" x="18.73" y="-1.60" angle="90.00" type="human" speed="13.71" pos="18.73" lane="e0_0" slope="0.00"/>
    </timestep>
    <timestep time="59.00">
        <vehicle id="background.0" x="25.55" y="-1.60" angle="90.00" type="human" speed="13.63" pos="25.55" lane="e0_0" slope="0.00"/>
    </timestep>
    <timestep time="59.50">
        <vehicle id="background.0" x="32.24" y="-1.60" angle="90.00" type="human" speed="13.39" pos="32.24" lane="e0_0" slope="0.00"/>
    </timestep>
    <timestep time="60.00">
        <vehicle id="background.0" x="39.03" y="-1.60" angle="90.00" type="human" speed="13.58" pos="39.03" lane="e0_0" slope="0.00"/>
    </timestep>
    <timestep time="60.50">
        <vehicle id="background.0" x="45.83" y="-1.60" angle="90.00" type="human" speed="13.61" pos="45.83" lane="e0_0" slope="0.00"/>
        <vehicle id="background.1" x="5.10" y="-1.60" angle="90.00" type="human" speed="13.88" pos="5.10" lane="e0_0" slope="0.00"/>
    </timestep>
    <timestep time="61.00">
        <vehicle id="background.0" x="52.66" y="-1.60" angle="90.00" type="human" speed="13.65" pos="52.66" lane="e0_0" slope="0.00"/>
        <vehicle id="background.1" x="11.89" y="-1.60" angle="90.00" type="human" speed="13.59" pos="11.89" lane="e0_0" slope="0.00"/>
    </timestep>
    <timestep time="61.50">
        <vehicle id="background.0" x="59.49" y="-1.60" angle="90.00" type="human" speed="13.66" pos="59.49" lane="e0_0" slope="0.00"/>
        <vehicle id="background.1" x="18.70" y="-1.60" angle="90.00" type="human" speed="13.62" pos="18.70" lane="e0_0" slope="0.00"/>
    </timestep>
    <timestep time="62.00">
        <vehicle id="background.0" x="66.20" y="-1.60" angle="90.00" type="human" speed="13.41" pos="66.20" lane="e0_0" slope="0.00"/>
        <vehicle id="background.1" x="25.40" y="-1.60" angle="90.00" type="human" speed="13.40" pos="25.40" lane="e0_0" slope="0.00"/>
    </timestep>
    <timestep time="62.50">
        <vehicle id="background.0" x="72.90" y="-1.60" angle="90.00" type="human" speed="13.40" pos="72.90" lane="e0_0" slope="0.00"/>
        <vehicle id="background.1" x="32.11" y="-1.60" angle="90.00" type="human" speed="13.41" pos="32.11" lane="e0_0" slope="0.00"/>
    </timestep>
    <timestep time="63.00">
        <vehicle id="background.0" x="79.63" y="-1.60" angle="90.00" type="human" speed="13.46" pos="79.63" lane="e0_0" slope="0.00"/>
        <vehicle id="background.1" x="38.83" y="-1.60" angle="90.00" type="human" speed="13.45" pos="38.83" lane="e0_0" slope="0.00"/>
    </timestep>
    <timestep time="63.50">
        <vehicle id="background.0" x="86.42" y="-1.60" angle="90.00" type="human" speed="13.59" pos="86.42" lane="e0_0" slope="0.00"/>
        <vehicle id="background.1" x="45.74" y="-1.60" angle="90.00" type="human" speed="13.80" pos="45.74" lane="e0_0" slope="0.00"/>
    </timestep>
    <timestep time="64.00">
        <vehicle id="background.0" x="93.32" y="-1.60" angle="90.00" type="human" speed="13.79" pos="93.32" lane="e0_0" slope="0.00"/>
        <vehicle id="background.1" x="52.55" y="-1.60" angle="90.00" type="human" speed="13.64" pos="52.55" lane="e0_0" slope="0.00"/>
    </timestep>
    <timestep time="64.50">
        <vehicle id="background.0" x="100.20" y="-1.60" angle="90.00" type="human" speed="13.76" pos="100.20" lane="e0_0" slope="0.00"/>
        <vehicle id="background.1" x="59.26" y="-1.60" angle="90.00" type="human" speed="13.42" pos="59.26" lane="e0_0" slope="0.00"/>
    </timestep>
    <timestep time="65.00">
        <vehicle id="background.0" x="107.13" y="-1.60" angle="90.00" type="human" speed="13.86" pos="107.13" lane="e0_0" slope="0.00"/>
        <vehicle id="background.1" x="66.09" y="-1.60" angle="90.00" type="human" speed="13.65" pos="66.09" lane="e0_0" slope="0.00"/>
    </timestep>
    <timestep time="65.50">
        <vehicle id="background.0" x="113.91" y="-1.60" angle="90.00" type="human" speed="13.57" pos="113.91" lane="e0_0" slope="0.00"/>
        <vehicle id="background.1" x="72.85" y="-1.60" angle="90.00" type="human" speed="13.52" pos="72.85" lane="e0_0" slope="0.00"/>
    </timestep>
    <timestep time="66.00">
        <vehicle id="background.0" x="120.68" y="-1.60" angle="90.00" type="human" speed="13.53" pos="120.68" lane="e0_0" slope="0.00"/>
        <vehicle id="background.1" x="79.78" y="-1.60" angle="90.00" type="human" speed="13.87" pos="79.78" lane="e0_0" slope="0.00"/>
        <vehicle id="background.2" x="5.10" y="-1.60" angle="90.00" type="human" speed="13.89" pos="5.10" lane="e0_0" slope="0.00"/>
    </timestep>
    <timestep time="66.50">
        <vehicle id="background.0" x="127.53" y="-1.60" angle="90.00" type="human" speed="13.71" pos="127.53" lane="e0_0" slope="0.00"/>
        <vehicle id="background.1" x="86.61" y="-1.60" angle="90.00" type="human" speed="13.66" pos="86.61" lane="e0_0" slope="0.00"/>
        <vehicle id="background.2" x="11.81" y="-1.60" angle="90.00" type="human" speed="13.41" pos="11.81" lane="e0_0" slope="0.00"/>
    </timestep>
    <timestep time="67.00">
        <vehicle id="background.0" x="134.38" y="-1.60" angle="90.00" type="human" speed="13.69" pos="134.38" lane="e0_0" slope="0.00"/>
        <vehicle id="background.1" x="93.40" y="-1.60" angle="90.00" type="human" speed="13.59" pos="93.40" lane="e0_0" slope="0.00"/>
        <vehicle id="background.2" x="18.64" y="-1.60" angle="90.00" type="human" speed="13.66" pos="18.64" lane="e0_0" slope="0.00"/>
    </timestep>
    <timestep time="67.50">
        <vehicle id="background.0" x="141.07" y="-1.60" angle="90.00" type="human" speed="13.39" pos="141.07" lane="e0_0" slope="0.00"/>
        <vehicle id="background.1" x="100.26" y="-1.60" angle="90.00" type="human" speed="13.71" pos="100.26" lane="e0_0" slope="0.00"/>
        <vehicle id="background.2" x="25.45" y="-1.60" angle="90.00" type="human" speed="13.62" pos="25.45" lane="e0_0" slope="0.00"/>
    </timestep>
    <timestep time="68.00">
        <vehicle id="background.0" x="147.78" y="-1.60" angle="90.00" type="human" speed="13.40" pos="147.78" lane="e0_0" slope="0.00"/>
        <vehicle id="background.1" x="107.18" y="-1.60" angle="90.00" type="human" speed="13.85" pos="107.18" lane="e0_0" slope="0.00"/>
        <vehicle id="background.2" x="32.37" y="-1.60" angle="90.00" type="human" speed="13.86" pos="32.37" lane="e0_0" slope="0.00"/>
        <vehicle id="background.3" x="5.10" y="-1.60" angle="90.00" type="human" speed="13.15" pos="5.10" lane="e0_0" slope="0.00"/>
    </timestep>
    <timestep time="68.50">
        <vehicle id="background.0" x="154.68" y="-1.60" angle="90.00" type="human" speed="13.82" pos="154.68" lane="e0_0" slope="0.00"/>
        <vehicle id="background.1" x="114.10" y="-1.60" angle="90.00" type="human" speed="13.83" pos="114.10" lane="e0_0" slope="0.00"/>
        <vehicle id="background.2" x="39.27" y="-1.60" angle="90.00" type="human" speed="13.79" pos="39.27" lane="e0_0" slope="0.00"/>
        <vehicle id="background.3" x="11.53" y="-1.60" angle="90.00" type="human" speed="12.86" pos="11.53" lane="e0_0" slope="0.00"/>
    </timestep>
    <timestep time="69.00">
        <vehicle id="background.0" x="161.50" y="-1.60" angle="90.00" type="human" speed="13.64" pos="161.50" lane="e0_0" slope="0.00"/>
        <vehicle id="background.1" x="121.00" y="-1.60" angle="90.00" type="human" speed="13.80" pos="121.00" lane="e0_0" slope="0.00"/>
        <vehicle id="background.2" x="46.08" y="-1.60" angle="90.00" type="human" speed="13.62" pos="46.08" lane="e0_0" slope="0.00"/>
        <vehicle id="background.3" x="17.94" y="-1.60" angle="90.00" type="human" speed="12.82" pos="17.94" lane="e0_0" slope="0.00"/>
    </timestep>
    <timestep time="69.50">
        <vehicle id="background.0" x="168.32" y="-1.60" angle="90.00" type="human" speed="13.62" pos="168.32" lane="e0_0" slope="0.00"/>
        <vehicle id="background.1" x="127.71" y="-1.60" angle="90.00" type="human" speed="13.43" pos="127.71" lane="e0_0" slope="0.00"/>
        <vehicle id="background.2" x="52.97" y="-1.60" angle="90.00" type="human" speed="13.77" pos="52.97" lane="e0_0" slope="0.00"/>
        <vehicle id="background.3" x="24.35" y="-1.60" angle="90.00" type="human" speed="12.83" pos="24.35" lane="e0_0" slope="0.00"/>
    </timestep>
    <timestep time="70.00">
        <vehicle id="background.0" x="175.11" y="-1.60" angle="90.00" type="human" speed="13.59" pos="175.11" lane="e0_0" slope="0.00"/>
        <vehicle id="background.1" x="134.49" y="-1.60" angle="90.00" type="human" speed="13.56" pos="134.49" lane="e0_0" slope="0.00"/>
        <vehicle id="background.2" x="59.73" y="-1.60" angle="90.00" type="human" speed="13.54" pos="59.73" lane="e0_0" slope="0.00"/>
        <vehicle id="background.3" x="30.82" y="-1.60" angle="90.00" type="human" speed="12.94" pos="30.82" lane="e0_0" slope="0.00"/>
    </timestep>
    <timestep time="70.50">
        <vehicle id="background.0" x="182.04" y="-1.60" angle="90.00" type="human" speed="13.86" pos="182.04" lane="e0_0" slope="0.00"/>
        <vehicle id="background.1" x="141.24" y="-1.60" angle="90.00" type="human" speed="13.50" pos="141.24" lane="e0_0" slope="0.00"/>
        <vehicle id="background.2" x="66.62" y="-1.60" angle="90.00" type="human" speed="13.77" pos="66.62" lane="e0_0" slope="0.00"/>
        <vehicle id="background.3" x="37.15" y="-1.60" angle="90.00" type="human" speed="12.66" pos="37.15" lane="e0_0" slope="0.00"/>
    </timestep>
    <timestep time="71.00">
        <vehicle id="background.0" x="188.94" y="-1.60" angle="90.00" type="human" speed="13.81" pos="188.94" lane="e0_0" slope="0.00"/>
        <vehicle id="background.1" x="148.02" y="-1.60" angle="90.00" type="human" speed="13.56" pos="148.02" lane="e0_0" slope="0.00"/>
        <vehicle id="background.2" x="73.32" y="-1.60" angle="90.00" type="human" speed="13.40" pos="73.32" lane="e0_0" slope="0.00"/>
        <vehicle id="background.3" x="43.67" y="-1.60" angle="90.00" type="human" speed="13.05" pos="43.67" lane="e0_0" slope="0.00"/>
    </timestep>
    <timestep time="71.50">
        <vehicle id="background.0" x="195.71" y="-1.60" angle="90.00" type="human" speed="13.53" pos="195.71" lane="e0_0" slope="0.00"/>
        <vehicle id="background.1" x="154.75" y="-1.60" angle="90.00" type="human" speed="13.46" pos="154.75" lane="e0_0" slope="0.00"/>
        <vehicle id="background.2" x="80.25" y="-1.60" angle="90.00" type="human" speed="13.85" pos="80.25" lane="e0_0" slope="0.00"/>
        <vehicle id="background.3" x="50.07" y="-1.60" angle="90.00" type="human" speed="12.78" pos="50.07" lane="e0_0" slope="0.00"/>
    </timestep>
    <timestep time="72.00">
        <vehicle id="background.0" x="202.52" y="-1.60" angle="90.00" type="human" speed="13.62" pos="202.52" lane="e0_0" slope="0.00"/>
        <vehicle id="background.1" x="161.45" y="-1.60" angle="90.00" type="human" speed="13.39" pos="161.45" lane="e0_0" slope="0.00"/>
        <vehicle id="background.2" x="87.16" y="-1.60" angle="90.00" type="human" speed="13.82" pos="87.16" lane="e0_0" slope="0.00"/>
        <vehicle id="background.3" x="56.45" y="-1.60" angle="90.00" type="human" speed="12.77" pos="56.45" lane="e0_0" slope="0.00"/>
    </timestep>
    <timestep time="72.50">
        <vehicle id="background.0" x="209.44" y="-1.60" angle="90.00" type="human" speed="13.84" pos="209.44" lane="e0_0" slope="0.00"/>
        <vehicle id="background.1" x="168.36" y="-1.60" angle="90.00" type="human" speed="13.83" pos="168.36" lane="e0_0" slope="0.00"/>
        <vehicle id="background.2" x="93.95" y="-1.60" angle="90.00" type="human" speed="13.58" pos="93.95" lane="e0_0" slope="0.00"/>
        <vehicle id="background.3" x="62.78" y="-1.60" angle="90.00" type="human" speed="12.67" pos="62.78" lane="e0_0" slope="0.00"/>
    </timestep>
    <timestep time="73.00">
        <vehicle id="background.0" x="216.15" y="-1.60" angle="90.00" type="human" speed="13.43" pos="216.15" lane="e0_0" slope="0.00"/>
        <vehicle id="background.1" x="175.18" y="-1.60" angle="90.00" type="human" speed="13.63" pos="175.18" lane="e0_0" slope="0.00"/>
        <vehicle id="background.2" x="100.66" y="-1.60" angle="90.00" type="human" speed="13.44" pos="100.66" lane="e0_0" slope="0.00"/>
        <vehicle id="background.3" x="69.31" y="-1.60" angle="90.00" type="human" speed="13.05" pos="69.31" lane="e0_0" slope="0.00"/>
    </timestep>
    <timestep time="73.50">
        <vehicle id="background.0" x="223.07" y="-1.60" angle="90.00" type="human" speed="13.84" pos="223.07" lane="e0_0" slope="0.00"/>
        <vehicle id="background.1" x="181.91" y="-1.60" angle="90.00" type="human" speed="13.47" pos="181.91" lane="e0_0" slope="0.00"/>
        <vehicle id="background.2" x="107.53" y="-1.60" angle="90.00" type="human" speed="13.72" pos="107.53" lane="e0_0" slope="0.00"/>
        <vehicle id="background.3" x="75.73" y="-1.60" angle="90.00" type="human" speed="12.86" pos="75.73" lane="e0_0" slope="0.00"/>
    </timestep>
    <timestep time="74.00">
        <vehicle id="background.0" x="229.95" y="-1.60" angle="90.00" type="human" speed="13.76" pos="229.95" lane="e0_0" slope="0.00"/>
        <vehicle id="background.1" x="188.66" y="-1.60" angle="90.00" type="human" speed="13.49" pos="188.66" lane="e0_0" slope="0.00"/>
        <vehicle id="background.2" x="114.40" y="-1.60" angle="90.00" type="human" speed="13.76" pos="114.40" lane="e0_0" slope="0.00"/>
        <vehicle id="background.3" x="82.24" y="-1.60" angle="90.00" type="human" speed="13.00" pos="82.24" lane="e0_0" slope="0.00"/>
    </timestep>
    <timestep time="74.50">
        <vehicle id="background.0" x="236.85" y="-1.60" angle="90.00" type="human" speed="13.80" pos="236.85" lane="e0_0" slope="0.00"/>
        <vehicle id="background.1" x="195.58" y="-1.60" angle="90.00" type="human" speed="13.84" pos="195.58" lane="e0_0" slope="0.00"/>
        <vehicle id="background.2" x="121.33" y="-1.60" angle="90.00" type="human" speed="13.86" pos="121.33" lane="e0_0" slope="0.00"/>
        <vehicle id="background.3" x="88.57" y="-1.60" angle="90.00" type="human" speed="12.68" pos="88.57" lane="e0_0" slope="0.00"/>
    </timestep>
    <timestep time="75.00">
        <vehicle id="background.0" x="243.59" y="-1.60" angle="90.00" type="human" speed="13.48" pos="243.59" lane="e0_0" slope="0.00"/>
        <vehicle id="background.1" x="202.34" y="-1.60" angle="90.00" type="human" speed="13.53" pos="202.34" lane="e0_0" slope="0.00"/>
        <vehicle id="background.2" x="128.17" y="-1.60" angle="90.00" type="human" speed="13.66" pos="128.17" lane="e0_0" slope="0.00"/>
        <vehicle id="background.3" x="95.00" y="-1.60" angle="90.00" type="human" speed="12.86" pos="95.00" lane="e0_0" slope="0.00"/>
    </timestep>
    <timestep time="75.50">
        <vehicle id="background.0" x="250.35" y="-1.60" angle="90.00" type="human" speed="13.51" pos="250.35" lane="e0_0" slope="0.00"/>
        <vehicle id="background.1" x="209.21" y="-1.60" angle="90.00" type="human" speed="13.74" pos="209.21" lane="e0_0" slope="0.00"/>
        <vehicle id="background.2" x="134.91" y="-1.60" angle="90.00" type="human" speed="13.50" pos="134.91" lane="e0_0" slope="0.00"/>
        <vehicle id="background.3" x="101.35" y="-1.60" angle="90.00" type="human" speed="12.69" pos="101.35" lane="e0_0" slope="0.00"/>
    </timestep>
    <timestep time="76.00">
        <vehicle id="background.0" x="257.28" y="-1.60" angle="90.00" type="human" speed="13.86" pos="257.28" lane="e0_0" slope="0.00"/>
        <vehicle id="background.1" x="215.98" y="-1.60" angle="90.00" type="human" speed="13.54" pos="215.98" lane="e0_0" slope="0.00"/>
        <vehicle id="background.2" x="141.74" y="-1.60" angle="90.00" type="human" speed="13.66" pos="141.74" lane="e0_0" slope="0.00"/>
        <vehicle id="background.3" x="107.79" y="-1.60" angle="90.00" type="human" speed="12.90" pos="107.79" lane="e0_0" slope="0.00"/>
    </timestep>
    <timestep time="76.50">
        <vehicle id="background.0" x="264.15" y="-1.60" angle="90.00" type="human" speed="13.74" pos="264.15" lane="e0_0" slope="0.00"/>
        <vehicle id="background.1" x="222.78" y="-1.60" angle="90.00" type="human" speed="13.59" pos="222.78" lane="e0_0" slope="0.00"/>
        <vehicle id="background.2" x="148.48" y="-1.60" angle="90.00" type="human" speed="13.46" pos="148.48" lane="e0_0" slope="0.00"/>
        <vehicle id="background.3" x="114.19" y="-1.60" angle="90.00" type="human" speed="12.80" pos="114.19" lane="e0_0" slope="0.00"/>
    </timestep>
    <timestep time="77.00">
        <vehicle id="background.0" x="271.02" y="-1.60" angle="90.00" type="human" speed="13.73" pos="271.02" lane="e0_0" slope="0.00"/>
        <vehicle id="background.1" x="229.55" y="-1.60" angle="90.00" type="human" speed="13.54" pos="229.55" lane="e0_0" slope="0.00"/>
        <vehicle id="background.2" x="155.25" y="-1.60" angle="90.00" type="human" speed="13.54" pos="155.25" lane="e0_0" slope="0.00"/>
        <vehicle id="background.3" x="120.54" y="-1.60" angle="90.00" type="human" speed="12.70" pos="120.54" lane="e0_0" slope="0.00"/>
    </timestep>
    <timestep time="77.50">
        <vehicle id="background.0" x="277.88" y="-1.60" angle="90.00" type="human" speed="13.73" pos="277.88" lane="e0_0" slope="0.00"/>
        <vehicle id="background.1" x="236.37" y="-1.60" angle="90.00" type="human" speed="13.64" pos="236.37" lane="e0_0" slope="0.00"/>
        <vehicle id="background.2" x="161.99" y="-1.60" angle="90.00" type="human" speed="13.49" pos="161.99" lane="e0_0" slope="0.00"/>
        <vehicle id="background.3" x="126.91" y="-1.60" angle="90.00" type="human" speed="12.73" pos="126.91" lane="e0_0" slope="0.00"/>
    </timestep>
    <timestep time="78.00">
        <vehicle id="background.0" x="284.21" y="-1.60" angle="90.00" type="human" speed="12.65" pos="284.21" lane="e0_0" slope="0.00"/>
        <vehicle id="background.1" x="243.27" y="-1.60" angle="90.00" type="human" speed="13.80" pos="243.27" lane="e0_0" slope="0.00"/>
        <vehicle id="background.2" x="168.89" y="-1.60" angle="90.00" type="human" speed="13.79" pos="168.89" lane="e0_0" slope="0.00"/>
        <vehicle id="background.3" x="133.37" y="-1.60" angle="90.00" type="human" speed="12.94" pos="133.37" lane="e0_0" slope="0.00"/>
    </timestep>
    <timestep time="78.50">
        <vehicle id="background.0" x="289.41" y="-1.60" angle="90.00" type="human" speed="10.40" pos="289.41" lane="e0_0" slope="0.00"/>
        <vehicle id="background.1" x="250.06" y="-1.60" angle="90.00" type="human" speed="13.57" pos="250.06" lane="e0_0" slope="0.00"/>
        <vehicle id="background.2" x="175.65" y="-1.60" angle="90.00" type="human" speed="13.54" pos="175.65" lane="e0_0" slope="0.00"/>
        <vehicle id="background.3" x="139.82" y="-1.60" angle="90.00" type="human" speed="12.90" pos="139.82" lane="e0_0" slope="0.00"/>
    </timestep>
    <timestep time="79.00">
        <vehicle id="background.0" x="293.49" y="-1.60" angle="90.00" type="human" speed="8.15" pos="293.49" lane="e0_0" slope="0.00"/>
        <vehicle id="background.1" x="256.85" y="-1.60" angle="90.00" type="human" speed="13.58" pos="256.85" lane="e0_0" slope="0.00"/>
        <vehicle id="background.2" x="182.56" y="-1.60" angle="90.00" type="human" speed="13.82" pos="182.56" lane="e0_0" slope="0.00"/>
        <vehicle id="background.3" x="146.33" y="-1.60" angle="90.00" type="human" speed="13.02" pos="146.33" lane="e0_0" slope="0.00"/>
    </timestep>
    <timestep time="79.50">
        <vehicle id="background.0" x="296.44" y="-1.60" angle="90.00" type="human" speed="5.90" pos="296.44" lane="e0_0" slope="0.00"/>
        <vehicle id="background.1" x="263.68" y="-1.60" angle="90.00" type="human" speed="13.66" pos="263.68" lane="e0_0" slope="0.00"/>
        <vehicle id="background.2" x="189.40" y="-1.60" angle="90.00" type="human" speed="13.67" pos="189.40" lane="e0_0" slope="0.00"/>
        <vehicle id="background.3" x="152.88" y="-1.60" angle="90.00" type="human" speed="13.10" pos="152.88" lane="e0_0" slope="0.00"/>
    </timestep>
    <timestep time="80.00">
        <vehicle id="background.0" x="298.26" y="-1.60" angle="90.00" type="human" speed="3.65" pos="298.26" lane="e0_0" slope="0.00"/>
        <vehicle id="background.1" x="269.85" y="-1.60" angle="90.00" type="human" speed="12.33" pos="269.85" lane="e0_0" slope="0.00"/>
        <vehicle id="background.2" x="196.28" y="-1.60" angle="90.00" type="human" speed="13.76" pos="196.28" lane="e0_0" slope="0.00"/>
        <vehicle id="background.3" x="159.27" y="-1.60" angle="90.00" type="human" speed="12.78" pos="159.27" lane="e0_0" slope="0.00"/>
        <vehicle id="background.4" x="5.10" y="-1.60" angle="90.00" type="human" speed="11.78" pos="5.10" lane="e0_0" slope="0.00"/>
    </timestep>
    <timestep time="80.50">
        <vehicle id="background.0" x="298.96" y="-1.60" angle="90.00" type="human" speed="1.40" pos="298.96" lane="e0_0" slope="0.00"/>
        <vehicle id="background.1" x="275.25" y="-1.60" angle="90.00" type="human" speed="10.82" pos="275.25" lane="e0_0" slope="0.00"/>
        <vehicle id="background.2" x="203.07" y="-1.60" angle="90.00" type="human" speed="13.58" pos="203.07" lane="e0_0" slope="0.00"/>
        <vehicle id="background.3" x="165.85" y="-1.60" angle="90.00" type="human" speed="13.15" pos="165.85" lane="e0_0" slope="0.00"/>
        <vehicle id="background.4" x="10.99" y="-1.60" angle="90.00" type="human" speed="11.78" pos="10.99" lane="e0_0" slope="0.00"/>
    </timestep>
    <timestep time="81.00">
        <vehicle id="background.0" x="298.99" y="-1.60" angle="90.00" type="human" speed="0.05" pos="298.99" lane="e0_0" slope="0.00"/>
        <vehicle id="background.1" x="279.81" y="-1.60" angle="90.00" type="human" speed="9.11" pos="279.81" lane="e0_0" slope="0.00"/>
        <vehicle id="background.2" x="209.78" y="-1.60" angle="90.00" type="human" speed="13.42" pos="209.78" lane="e0_0" slope="0.00"/>
        <vehicle id="background.3" x="172.42" y="-1.60" angle="90.00" type="human" speed="13.14" pos="172.42" lane="e0_0" slope="0.00"/>
        <vehicle id="background.4" x="16.74" y="-1.60" angle="90.00" type="human" speed="11.50" pos="16.74" lane="e0_0" slope="0.00"/>
    </timestep>
    <timestep time="81.50">
        <vehicle id="background.0" x="299.00" y="-1.60" angle="90.00" type="human" speed="0.01" pos="299.00" lane="e0_0" slope="0.00"/>
        <vehicle id="background.1" x="283.31" y="-1.60" angle="90.00" type="human" speed="7.00" pos="283.31" lane="e0_0" slope="0.00"/>
        <vehicle id="background.2" x="216.63" y="-1.60" angle="90.00" type="human" speed="13.71" pos="216.63" lane="e0_0" slope="0.00"/>
        <vehicle id="background.3" x="178.85" y="-1.60" angle="90.00" type="human" speed="12.86" pos="178.85" lane="e0_0" slope="0.00"/>
        <vehicle id="background.4" x="22.61" y="-1.60" angle="90.00" type="human" speed="11.74" pos="22.61" lane="e0_0" slope="0.00"/>
    </timestep>
    <timestep time="82.00">
        <vehicle id="background.0" x="299.00" y="-1.60" angle="90.00" type="human" speed="0.00" pos="299.00" lane="e0_0" slope="0.00"/>
        <vehicle id="background.1" x="286.13" y="-1.60" angle="90.00" type="human" speed="5.64" pos="286.13" lane="e0_0" slope="0.00"/>
        <vehicle id="background.2" x="223.42" y="-1.60" angle="90.00" type="human" speed="13.57" pos="223.42" lane="e0_0" slope="0.00"/>
        <vehicle id="background.3" x="185.28" y="-1.60" angle="90.00" type="human" speed="12.85" pos="185.28" lane="e0_0" slope="0.00"/>
        <vehicle id="background.4" x="28.32" y="-1.60" angle="90.00" type="human" speed="11.42" pos="28.32" lane="e0_0" slope="0.00"/>
    </timestep>
    <timestep time="82.50">
        <vehicle id="background.0" x="299.00" y="-1.60" angle="90.00" type="human" speed="0.00" pos="299.00" lane="e0_0" slope="0.00"/>
        <vehicle id="background.1" x="288.29" y="-1.60" angle="90.00" type="human" speed="4.32" pos="288.29" lane="e0_0" slope="0.00"/>
        <vehicle id="background.2" x="230.15" y="-1.60" angle="90.00" type="human" speed="13.47" pos="230.15" lane="e0_0" slope="0.00"/>
        <vehicle id="background.3" x="191.74" y="-1.60" angle="90.00" type="human" speed="12.92" pos="191.74" lane="e0_0" slope="0.00"/>
        <vehicle id="background.4" x="33.97" y="-1.60" angle="90.00" type="human" speed="11.30" pos="33.97" lane="e0_0" slope="0.00"/>
    </timestep>
    <timestep time="83.00">
        <vehicle id="background.0" x="299.00" y="-1.60" angle="90.00" type="human" speed="0.00" pos="299.00" lane="e0_0" slope="0.00"/>
        <vehicle id="background.1" x="289.52" y="-1.60" angle="90.00" type="human" speed="2.47" pos="289.52" lane="e0_0" slope="0.00"/>
        <vehicle id="background.2" x="236.98" y="-1.60" angle="90.00" type="human" speed="13.66" pos="236.98" lane="e0_0" slope="0.00"/>
        <vehicle id="background.3" x="198.14" y="-1.60" angle="90.00" type="human" speed="12.80" pos="198.14" lane="e0_0" slope="0.00"/>
        <vehicle id="background.4" x="39.66" y="-1.60" angle="90.00" type="human" speed="11.39" pos="39.66" lane="e0_0" slope="0.00"/>