<?xml version="1.0" encoding="UTF-8"?>

<!-- generated on 2026-05-15 22:31:55 by Eclipse SUMO sumo Version 1.24.0
<sumoConfiguration xmlns:xsi="http://www.w3.org/2001/XMLSchema-instance" xsi:noNamespaceSchemaLocation="http://sumo.dlr.de/xsd/sumoConfiguration.xsd">

    <input>
        <net-file value="scenarios/simple_arterial/simple_arterial.net.xml"/>
        <route-files value="scenarios/simple_arterial/simple_arterial.rou.xml"/>
        <additional-files value="scenarios/simple_arterial/simple_arterial.tls.xml"/>
    </input>

    <output>
        <fcd-output value="runs/fcd_random/episode_00002_seed_44.fcd.xml"/>
    </output>

    <time>
        <begin value="0"/>
        <end value="900"/>
        <step-length value="0.5"/>
    </time>

    <report>
        <no-warnings value="true"/>
    </report>

    <traci_server>
        <remote-port value="21507"/>
    </traci_server>

    <random_number>
        <seed value="44"/>
    </random_number>

</sumoConfiguration>
-->

<fcd-export xmlns:xsi="http://www.w3.org/2001/XMLSchema-instance" xsi:noNamespaceSchemaLocation="http://sumo.dlr.de/xsd/fcd_file.xsd">
    <timestep time="0.00"/>
    <timestep time="0.50"/>
    <timestep time="1.00"/>
    <timestep time="1.50"/>
    <timestep time="2.00"/>
    <timestep time="2.50"/>
    <timestep time="3.00"/>
    <timestep time="3.50"/>
    <timestep time="4.00"/>
    <timestep time="4.50"/>
    <timestep time="5.00"/>
    <timestep time="5.50"/>
    <timestep time="6.00"/>
    <timestep time="6.50"/>
    <timestep time="7.00"/>
    <timestep time="7.50"/>
    <timestep time="8.00"/>
    <timestep time="8.50"/>
    <timestep time="9.00"/>
    <timestep time="9.50"/>
    <timestep time="10.00"/>
    <timestep time="10.50"/>
    <timestep time="11.00"/>
    <timestep time="11.50">
        <vehicle id="ego" x="5.10" y="-1.60" angle="90.00" type="ego_type" speed="3.36" pos="5.10" lane="e0_0" slope="0.00"/>
    </timestep>
    <timestep time="12.00">
        <vehicle id="ego" x="6.15" y="-1.60" angle="90.00" type="ego_type" speed="2.11" pos="6.15" lane="e0_0" slope="0.00"/>
    </timestep>
    <timestep time="12.50">
        <vehicle id="ego" x="7.08" y="-1.60" angle="90.00" type="ego_type" speed="1.86" pos="7.08" lane="e0_0" slope="0.00"/>
    </timestep>
    <timestep time="13.00">
        <vehicle id="ego" x="8.26" y="-1.60" angle="90.00" type="ego_type" speed="2.36" pos="8.26" lane="e0_0" slope="0.00"/>
    </timestep>
    <timestep time="13.50">
        <vehicle id="ego" x="8.81" y="-1.60" angle="90.00" type="ego_type" speed="1.11" pos="8.81" lane="e0_0" slope="0.00"/>
    </timestep>
    <timestep time="14.00">
        <vehicle id="ego" x="9.49" y="-1.60" angle="90.00" type="ego_type" speed="1.36" pos="9.49" lane="e0_0" slope="0.00"/>
    </timestep>
    <timestep time="14.50">
        <vehicle id="ego" x="10.42" y="-1.60" angle="90.00" type="ego_type" speed="1.86" pos="10.42" lane="e0_0" slope="0.00"/>
    </timestep>
    <timestep time="15.00">
        <vehicle id="ego" x="11.34" y="-1.60" angle="90.00" type="ego_type" speed="1.86" pos="11.34" lane="e0_0" slope="0.00"/>
    </timestep>
    <timestep time="15.50">
        <vehicle id="ego" x="12.65" y="-1.60" angle="90.00" type="ego_type" speed="2.61" pos="12.65" lane="e0_0" slope="0.00"/>
    </timestep>
    <timestep time="16.00">
        <vehicle id="ego" x="14.32" y="-1.60" angle="90.00" type="ego_type" speed="3.36" pos="14.32" lane="e0_0" slope="0.00"/>
    </timestep>
    <timestep time="16.50">
        <vehicle id="ego" x="16.25" y="-1.60" angle="90.00" type="ego_type" speed="3.86" pos="16.25" lane="e0_0" slope="0.00"/>
    </timestep>
    <timestep time="17.00">
        <vehicle id="ego" x="17.68" y="-1.60" angle="90.00" type="ego_type" speed="2.86" pos="17.68" lane="e0_0" slope="0.00"/>
    </timestep>
    <timestep time="17.50">
        <vehicle id="ego" x="18.98" y="-1.60" angle="90.00" type="ego_type" speed="2.61" pos="18.98" lane="e0_0" slope="0.00"/>
    </timestep>
    <timestep time="18.00">
        <vehicle id="ego" x="20.66" y="-1.60" angle="90.00" type="ego_type" speed="3.36" pos="20.66" lane="e0_0" slope="0.00"/>
    </timestep>
    <timestep time="18.50">
        <vehicle id="ego" x="22.46" y="-1.60" angle="90.00" type="ego_type" speed="3.61" pos="22.46" lane="e0_0" slope="0.00"/>
    </timestep>
    <timestep time="19.00">
        <vehicle id="ego" x="24.02" y="-1.60" angle="90.00" type="ego_type" speed="3.11" pos="24.02" lane="e0_0" slope="0.00"/>
    </timestep>
    <timestep time="19.50">
        <vehicle id="ego" x="24.94" y="-1.60" angle="90.00" type="ego_type" speed="1.86" pos="24.94" lane="e0_0" slope="0.00"/>
    </timestep>
    <timestep time="20.00">
        <vehicle id="ego" x="26.00" y="-1.60" angle="90.00" type="ego_type" speed="2.11" pos="26.00" lane="e0_0" slope="0.00"/>
    </timestep>
    <timestep time="20.50">
        <vehicle id="background.0" x="5.10" y="-1.60" angle="90.00" type="human" speed="7.42" pos="5.10" lane="e0_0" slope="0.00"/>
        <vehicle id="ego" x="27.05" y="-1.60" angle="90.00" type="ego_type" speed="2.11" pos="27.05" lane="e0_0" slope="0.00"/>
    </timestep>
    <timestep time="21.00">
        <vehicle id="background.0" x="8.75" y="-1.60" angle="90.00" type="human" speed="7.31" pos="8.75" lane="e0_0" slope="0.00"/>
        <vehicle id="ego" x="27.60" y="-1.60" angle="90.00" type="ego_type" speed="1.11" pos="27.60" lane="e0_0" slope="0.00"/>
    </timestep>
    <timestep time="21.50">
        <vehicle id="background.0" x="11.82" y="-1.60" angle="90.00" type="human" speed="6.12" pos="11.82" lane="e0_0" slope="0.00"/>
        <vehicle id="ego" x="28.15" y="-1.60" angle="90.00" type="ego_type" speed="1.11" pos="28.15" lane="e0_0" slope="0.00"/>
    </timestep>
    <timestep time="22.00">
        <vehicle id="background.0" x="14.25" y="-1.60" angle="90.00" type="human" speed="4.87" pos="14.25" lane="e0_0" slope="0.00"/>
        <vehicle id="ego" x="28.58" y="-1.60" angle="90.00" type="ego_type" speed="0.86" pos="28.58" lane="e0_0" slope="0.00"/>
    </timestep>
    <timestep time="22.50">
        <vehicle id="background.0" x="16.37" y="-1.60" angle="90.00" type="human" speed="4.23" pos="16.37" lane="e0_0" slope="0.00"/>
        <vehicle id="ego" x="29.26" y="-1.60" angle="90.00" type="ego_type" speed="1.36" pos="29.26" lane="e0_0" slope="0.00"/>
    </timestep>
    <timestep time="23.00">
        <vehicle id="background.0" x="18.07" y="-1.60" angle="90.00" type="human" speed="3.41" pos="18.07" lane="e0_0" slope="0.00"/>
        <vehicle id="ego" x="30.31" y="-1.60" angle="90.00" type="ego_type" speed="2.11" pos="30.31" lane="e0_0" slope="0.00"/>
    </timestep>
    <timestep time="23.50">
        <vehicle id="background.0" x="19.69" y="-1.60" angle="90.00" type="human" speed="3.24" pos="19.69" lane="e0_0" slope="0.00"/>
        <vehicle id="ego" x="31.49" y="-1.60" angle="90.00" type="ego_type" speed="2.36" pos="31.49" lane="e0_0" slope="0.00"/>
    </timestep>
    <timestep time="24.00">
        <vehicle id="background.0" x="21.38" y="-1.60" angle="90.00" type="human" speed="3.37" pos="21.38" lane="e0_0" slope="0.00"/>
        <vehicle id="ego" x="32.04" y="-1.60" angle="90.00" type="ego_type" speed="1.11" pos="32.04" lane="e0_0" slope="0.00"/>
    </timestep>
    <timestep time="24.50">
        <vehicle id="background.0" x="22.54" y="-1.60" angle="90.00" type="human" speed="2.33" pos="22.54" lane="e0_0" slope="0.00"/>
        <vehicle id="ego" x="32.10" y="-1.60" angle="90.00" type="ego_type" speed="0.11" pos="32.10" lane="e0_0" slope="0.00"/>
    </timestep>
    <timestep time="25.00">
        <vehicle id="background.0" x="23.33" y="-1.60" angle="90.00" type="human" speed="1.58" pos="23.33" lane="e0_0" slope="0.00"/>
        <vehicle id="ego" x="32.27" y="-1.60" angle="90.00" type="ego_type" speed="0.36" pos="32.27" lane="e0_0" slope="0.00"/>
    </timestep>
    <timestep time="25.50">
        <vehicle id="background.0" x="24.05" y="-1.60" angle="90.00" type="human" speed="1.45" pos="24.05" lane="e0_0" slope="0.00"/>
        <vehicle id="ego" x="32.70" y="-1.60" angle="90.00" type="ego_type" speed="0.86" pos="32.70" lane="e0_0" slope="0.00"/>
    </timestep>
    <timestep time="26.00">
        <vehicle id="background.0" x="24.53" y="-1.60" angle="90.00" type="human" speed="0.97" pos="24.53" lane="e0_0" slope="0.00"/>
        <vehicle id="ego" x="33.50" y="-1.60" angle="90.00" type="ego_type" speed="1.61" pos="33.50" lane="e0_0" slope="0.00"/>
    </timestep>
    <timestep time="26.50">
        <vehicle id="background.0" x="25.19" y="-1.60" angle="90.00" type="human" speed="1.31" pos="25.19" lane="e0_0" slope="0.00"/>
        <vehicle id="ego" x="33.68" y="-1.60" angle="90.00" type="ego_type" speed="0.36" pos="33.68" lane="e0_0" slope="0.00"/>
    </timestep>
    <timestep time="27.00">
        <vehicle id="background.0" x="25.57" y="-1.60" angle="90.00" type="human" speed="0.77" pos="25.57" lane="e0_0" slope="0.00"/>
        <vehicle id="ego" x="33.86" y="-1.60" angle="90.00" type="ego_type" speed="0.36" pos="33.86" lane="e0_0" slope="0.00"/>
    </timestep>
    <timestep time="27.50">
        <vehicle id="background.0" x="25.95" y="-1.60" angle="90.00" type="human" speed="0.75" pos="25.95" lane="e0_0" slope="0.00"/>
        <vehicle id="ego" x="34.54" y="-1.60" angle="90.00" type="ego_type" speed="1.36" pos="34.54" lane="e0_0" slope="0.00"/>
    </timestep>
    <timestep time="28.00">
        <vehicle id="background.0" x="26.48" y="-1.60" angle="90.00" type="human" speed="1.07" pos="26.48" lane="e0_0" slope="0.00"/>
        <vehicle id="ego" x="34.97" y="-1.60" angle="90.00" type="ego_type" speed="0.86" pos="34.97" lane="e0_0" slope="0.00"/>
    </timestep>
    <timestep time="28.50">
        <vehicle id="background.0" x="26.94" y="-1.60" angle="90.00" type="human" speed="0.92" pos="26.94" lane="e0_0" slope="0.00"/>
        <vehicle id="ego" x="35.64" y="-1.60" angle="90.00" type="ego_type" speed="1.36" pos="35.64" lane="e0_0" slope="0.00"/>
    </timestep>
    <timestep time="29.00">
        <vehicle id="background.0" x="27.54" y="-1.60" angle="90.00" type="human" speed="1.19" pos="27.54" lane="e0_0" slope="0.00"/>
        <vehicle id="ego" x="36.82" y="-1.60" angle="90.00" type="ego_type" speed="2.36" pos="36.82" lane="e0_0" slope="0.00"/>
    </timestep>
    <timestep time="29.50">
        <vehicle id="background.0" x="28.29" y="-1.60" angle="90.00" type="human" speed="1.50" pos="28.29" lane="e0_0" slope="0.00"/>
        <vehicle id="ego" x="38.00" y="-1.60" angle="90.00" type="ego_type" speed="2.36" pos="38.00" lane="e0_0" slope="0.00"/>
    </timestep>
    <timestep time="30.00">
        <vehicle id="background.0" x="29.21" y="-1.60" angle="90.00" type="human" speed="1.84" pos="29.21" lane="e0_0" slope="0.00"/>
        <vehicle id="ego" x="39.68" y="-1.60" angle="90.00" type="ego_type" speed="3.36" pos="39.68" lane="e0_0" slope="0.00"/>
    </timestep>
    <timestep time="30.50">
        <vehicle id="background.0" x="30.45" y="-1.60" angle="90.00" type="human" speed="2.48" pos="30.45" lane="e0_0" slope="0.00"/>
        <vehicle id="ego" x="41.60" y="-1.60" angle="90.00" type="ego_type" speed="3.86" pos="41.60" lane="e0_0" slope="0.00"/>
    </timestep>
    <timestep time="31.00">
        <vehicle id="background.0" x="32.15" y="-1.60" angle="90.00" type="human" speed="3.40" pos="32.15" lane="e0_0" slope="0.00"/>
        <vehicle id="ego" x="43.28" y="-1.60" angle="90.00" type="ego_type" speed="3.36" pos="43.28" lane="e0_0" slope="0.00"/>
    </timestep>
    <timestep time="31.50">
        <vehicle id="background.0" x="33.70" y="-1.60" angle="90.00" type="human" speed="3.10" pos="33.70" lane="e0_0" slope="0.00"/>
        <vehicle id="ego" x="44.21" y="-1.60" angle="90.00" type="ego_type" speed="1.86" pos="44.21" lane="e0_0" slope="0.00"/>
    </timestep>
    <timestep time="32.00">
        <vehicle id="background.0" x="34.91" y="-1.60" angle="90.00" type="human" speed="2.42" pos="34.91" lane="e0_0" slope="0.00"/>
        <vehicle id="ego" x="44.89" y="-1.60" angle="90.00" type="ego_type" speed="1.36" pos="44.89" lane="e0_0" slope="0.00"/>
    </timestep>
    <timestep time="32.50">
        <vehicle id="background.0" x="35.74" y="-1.60" angle="90.00" type="human" speed="1.66" pos="35.74" lane="e0_0" slope="0.00"/>
        <vehicle id="ego" x="45.94" y="-1.60" angle="90.00" type="ego_type" speed="2.11" pos="45.94" lane="e0_0" slope="0.00"/>
    </timestep>
    <timestep time="33.00">
        <vehicle id="background.0" x="36.93" y="-1.60" angle="90.00" type="human" speed="2.39" pos="36.93" lane="e0_0" slope="0.00"/>
        <vehicle id="ego" x="46.49" y="-1.60" angle="90.00" type="ego_type" speed="1.11" pos="46.49" lane="e0_0" slope="0.00"/>
    </timestep>
    <timestep time="33.50">
        <vehicle id="background.0" x="37.74" y="-1.60" angle="90.00" type="human" speed="1.61" pos="37.74" lane="e0_0" slope="0.00"/>
        <vehicle id="ego" x="47.17" y="-1.60" angle="90.00" type="ego_type" speed="1.36" pos="47.17" lane="e0_0" slope="0.00"/>
    </timestep>
    <timestep time="34.00">
        <vehicle id="background.0" x="38.42" y="-1.60" angle="90.00" type="human" speed="1.36" pos="38.42" lane="e0_0" slope="0.00"/>
        <vehicle id="ego" x="48.35" y="-1.60" angle="90.00" type="ego_type" speed="2.36" pos="48.35" lane="e0_0" slope="0.00"/>
    </timestep>
    <timestep time="34.50">
        <vehicle id="background.0" x="39.54" y="-1.60" angle="90.00" type="human" speed="2.24" pos="39.54" lane="e0_0" slope="0.00"/>
        <vehicle id="ego" x="49.65" y="-1.60" angle="90.00" type="ego_type" speed="2.61" pos="49.65" lane="e0_0" slope="0.00"/>
    </timestep>
    <timestep time="35.00">
        <vehicle id="background.0" x="40.63" y="-1.60" angle="90.00" type="human" speed="2.17" pos="40.63" lane="e0_0" slope="0.00"/>
        <vehicle id="ego" x="50.83" y="-1.60" angle="90.00" type="ego_type" speed="2.36" pos="50.83" lane="e0_0" slope="0.00"/>
    </timestep>
    <timestep time="35.50">
        <vehicle id="background.0" x="41.82" y="-1.60" angle="90.00" type="human" speed="2.39" pos="41.82" lane="e0_0" slope="0.00"/>
        <vehicle id="ego" x="51.76" y="-1.60" angle="90.00" type="ego_type" speed="1.86" pos="51.76" lane="e0_0" slope="0.00"/>
    </timestep>
    <timestep time="36.00">
        <vehicle id="background.0" x="42.74" y="-1.60" angle="90.00" type="human" speed="1.84" pos="42.74" lane="e0_0" slope="0.00"/>
        <vehicle id="ego" x="52.81" y="-1.60" angle="90.00" type="ego_type" speed="2.11" pos="52.81" lane="e0_0" slope="0.00"/>
    </timestep>
    <timestep time="36.50">
        <vehicle id="background.0" x="43.81" y="-1.60" angle="90.00" type="human" speed="2.13" pos="43.81" lane="e0_0" slope="0.00"/>
        <vehicle id="ego" x="53.36" y="-1.60" angle="90.00" type="ego_type" speed="1.11" pos="53.36" lane="e0_0" slope="0.00"/>
    </timestep>
    <timestep time="37.00">
        <vehicle id="background.0" x="44.65" y="-1.60" angle="90.00" type="human" speed="1.68" pos="44.65" lane="e0_0" slope="0.00"/>
        <vehicle id="ego" x="53.54" y="-1.60" angle="90.00" type="ego_type" speed="0.36" pos="53.54" lane="e0_0" slope="0.00"/>
    </timestep>
    <timestep time="37.50">
        <vehicle id="background.0" x="45.32" y="-1.60" angle="90.00" type="human" speed="1.34" pos="45.32" lane="e0_0" slope="0.00"/>
        <vehicle id="ego" x="54.22" y="-1.60" angle="90.00" type="ego_type" speed="1.36" pos="54.22" lane="e0_0" slope="0.00"/>
    </timestep>
    <timestep time="38.00">
        <vehicle id="background.0" x="46.01" y="-1.60" angle="90.00" type="human" speed="1.39" pos="46.01" lane="e0_0" slope="0.00"/>
        <vehicle id="ego" x="54.27" y="-1.60" angle="90.00" type="ego_type" speed="0.11" pos="54.27" lane="e0_0" slope="0.00"/>
    </timestep>
    <timestep time="38.50">
        <vehicle id="background.0" x="46.37" y="-1.60" angle="90.00" type="human" speed="0.72" pos="46.37" lane="e0_0" slope="0.00"/>
        <vehicle id="ego" x="54.70" y="-1.60" angle="90.00" type="ego_type" speed="0.86" pos="54.70" lane="e0_0" slope="0.00"/>
    </timestep>
    <timestep time="39.00">
        <vehicle id="background.0" x="46.70" y="-1.60" angle="90.00" type="human" speed="0.65" pos="46.70" lane="e0_0" slope="0.00"/>
        <vehicle id="ego" x="55.50" y="-1.60" angle="90.00" type="ego_type" speed="1.61" pos="55.50" lane="e0_0" slope="0.00"/>
    </timestep>
    <timestep time="39.50">
        <vehicle id="background.0" x="47.24" y="-1.60" angle="90.00" type="human" speed="1.08" pos="47.24" lane="e0_0" slope="0.00"/>
        <vehicle id="ego" x="56.43" y="-1.60" angle="90.00" type="ego_type" speed="1.86" pos="56.43" lane="e0_0" slope="0.00"/>
    </timestep>
    <timestep time="40.00">
        <vehicle id="background.0" x="47.90" y="-1.60" angle="90.00" type="human" speed="1.32" pos="47.90" lane="e0_0" slope="0.00"/>
        <vehicle id="ego" x="57.73" y="-1.60" angle="90.00" type="ego_type" speed="2.61" pos="57.73" lane="e0_0" slope="0.00"/>
    </timestep>
    <timestep time="40.50">
        <vehicle id="background.0" x="48.99" y="-1.60" angle="90.00" type="human" speed="2.18" pos="48.99" lane="e0_0" slope="0.00"/>
        <vehicle id="ego" x="58.66" y="-1.60" angle="90.00" type="ego_type" speed="1.86" pos="58.66" lane="e0_0" slope="0.00"/>
    </timestep>
    <timestep time="41.00">
        <vehicle id="background.0" x="49.85" y="-1.60" angle="90.00" type="human" speed="1.72" pos="49.85" lane="e0_0" slope="0.00"/>
        <vehicle id="ego" x="59.84" y="-1.60" angle="90.00" type="ego_type" speed="2.36" pos="59.84" lane="e0_0" slope="0.00"/>
    </timestep>
    <timestep time="41.50">
        <vehicle id="background.0" x="50.92" y="-1.60" angle="90.00" type="human" speed="2.14" pos="50.92" lane="e0_0" slope="0.00"/>
        <vehicle id="ego" x="60.89" y="-1.60" angle="90.00" type="ego_type" speed="2.11" pos="60.89" lane="e0_0" slope="0.00"/>
    </timestep>
    <timestep time="42.00">
        <vehicle id="background.0" x="52.08" y="-1.60" angle="90.00" type="human" speed="2.32" pos="52.08" lane="e0_0" slope="0.00"/>
        <vehicle id="ego" x="62.07" y="-1.60" angle="90.00" type="ego_type" speed="2.36" pos="62.07" lane="e0_0" slope="0.00"/>
    </timestep>
    <timestep time="42.50">
        <vehicle id="background.0" x="53.12" y="-1.60" angle="90.00" type="human" speed="2.08" pos="53.12" lane="e0_0" slope="0.00"/>
        <vehicle id="ego" x="63.62" y="-1.60" angle="90.00" type="ego_type" speed="3.11" pos="63.62" lane="e0_0" slope="0.00"/>
    </timestep>
    <timestep time="43.00">
        <vehicle id="background.0" x="54.55" y="-1.60" angle="90.00" type="human" speed="2.86" pos="54.55" lane="e0_0" slope="0.00"/>
        <vehicle id="ego" x="65.05" y="-1.60" angle="90.00" type="ego_type" speed="2.86" pos="65.05" lane="e0_0" slope="0.00"/>
    </timestep>
    <timestep time="43.50">
        <vehicle id="background.0" x="55.97" y="-1.60" angle="90.00" type="human" speed="2.84" pos="55.97" lane="e0_0" slope="0.00"/>
        <vehicle id="ego" x="66.48" y="-1.60" angle="90.00" type="ego_type" speed="2.86" pos="66.48" lane="e0_0" slope="0.00"/>
    </timestep>
    <timestep time="44.00">
        <vehicle id="background.0" x="57.33" y="-1.60" angle="90.00" type="human" speed="2.72" pos="57.33" lane="e0_0" slope="0.00"/>
        <vehicle id="ego" x="67.28" y="-1.60" angle="90.00" type="ego_type" speed="1.61" pos="67.28" lane="e0_0" slope="0.00"/>
    </timestep>
    <timestep time="44.50">
        <vehicle id="background.0" x="58.41" y="-1.60" angle="90.00" type="human" speed="2.15" pos="58.41" lane="e0_0" slope="0.00"/>
        <vehicle id="ego" x="68.08" y="-1.60" angle="90.00" type="ego_type" speed="1.61" pos="68.08" lane="e0_0" slope="0.00"/>
    </timestep>
    <timestep time="45.00">
        <vehicle id="background.0" x="59.17" y="-1.60" angle="90.00" type="human" speed="1.53" pos="59.17" lane="e0_0" slope="0.00"/>
        <vehicle id="ego" x="68.13" y="-1.60" angle="90.00" type="ego_type" speed="0.11" pos="68.13" lane="e0_0" slope="0.00"/>
    </timestep>
    <timestep time="45.50">
        <vehicle id="background.0" x="59.80" y="-1.60" angle="90.00" type="human" speed="1.26" pos="59.80" lane="e0_0" slope="0.00"/>
        <vehicle id="ego" x="68.31" y="-1.60" angle="90.00" type="ego_type" speed="0.36" pos="68.31" lane="e0_0" slope="0.00"/>
    </timestep>
    <timestep time="46.00">
        <vehicle id="background.0" x="60.21" y="-1.60" angle="90.00" type="human" speed="0.81" pos="60.21" lane="e0_0" slope="0.00"/>
        <vehicle id="ego" x="68.74" y="-1.60" angle="90.00" type="ego_type" speed="0.86" pos="68.74" lane="e0_0" slope="0.00"/>
    </timestep>
    <timestep time="46.50">
        <vehicle id="background.0" x="60.63" y="-1.60" angle="90.00" type="human" speed="0.84" pos="60.63" lane="e0_0" slope="0.00"/>
        <vehicle id="ego" x="69.42" y="-1.60" angle="90.00" type="ego_type" speed="1.36" pos="69.42" lane="e0_0" slope="0.00"/>
    </timestep>
    <timestep time="47.00">
        <vehicle id="background.0" x="61.14" y="-1.60" angle="90.00" type="human" speed="1.02" pos="61.14" lane="e0_0" slope="0.00"/>
        <vehicle id="ego" x="70.34" y="-1.60" angle="90.00" type="ego_type" speed="1.86" pos="70.34" lane="e0_0" slope="0.00"/>
    </timestep>
    <timestep time="47.50">
        <vehicle id="background.0" x="61.87" y="-1.60" angle="90.00" type="human" speed="1.46" pos="61.87" lane="e0_0" slope="0.00"/>
        <vehicle id="ego" x="70.52" y="-1.60" angle="90.00" type="ego_type" speed="0.36" pos="70.52" lane="e0_0" slope="0.00"/>
    </timestep>
    <timestep time="48.00">
        <vehicle id="background.0" x="62.36" y="-1.60" angle="90.00" type="human" speed="0.97" pos="62.36" lane="e0_0" slope="0.00"/>
        <vehicle id="ego" x="70.70" y="-1.60" angle="90.00" type="ego_type" speed="0.36" pos="70.70" lane="e0_0" slope="0.00"/>
    </timestep>
    <timestep time="48.50">
        <vehicle id="background.0" x="62.73" y="-1.60" angle="90.00" type="human" speed="0.74" pos="62.73" lane="e0_0" slope="0.00"/>
        <vehicle id="ego" x="71.00" y="-1.60" angle="90.00" type="ego_type" speed="0.61" pos="71.00" lane="e0_0" slope="0.00"/>
    </timestep>
    <timestep time="49.00">
        <vehicle id="background.0" x="63.04" y="-1.60" angle="90.00" type="human" speed="0.63" pos="63.04" lane="e0_0" slope="0.00"/>
        <vehicle id="ego" x="71.56" y="-1.60" angle="90.00" type="ego_type" speed="1.11" pos="71.56" lane="e0_0" slope="0.00"/>
    </timestep>
    <timestep time="49.50">
        <vehicle id="background.0" x="63.54" y="-1.60" angle="90.00" type="human" speed="0.99" pos="63.54" lane="e0_0" slope="0.00"/>
        <vehicle id="ego" x="72.23" y="-1.60" angle="90.00" type="ego_type" speed="1.36" pos="72.23" lane="e0_0" slope="0.00"/>
    </timestep>
    <timestep time="50.00">
        <vehicle id="background.0" x="64.00" y="-1.60" angle="90.00" type="human" speed="0.93" pos="64.00" lane="e0_0" slope="0.00"/>
        <vehicle id="ego" x="73.04" y="-1.60" angle="90.00" type="ego_type" speed="1.61" pos="73.04" lane="e0_0" slope="0.00"/>
    </timestep>
    <timestep time="50.50">
        <vehicle id="background.0" x="64.60" y="-1.60" angle="90.00" type="human" speed="1.19" pos="64.60" lane="e0_0" slope="0.00"/>
        <vehicle id="ego" x="73.34" y="-1.60" angle="90.00" type="ego_type" speed="0.61" pos="73.34" lane="e0_0" slope="0.00"/>
    </timestep>
    <timestep time="51.00">
        <vehicle id="background.0" x="65.19" y="-1.60" angle="90.00" type="human" speed="1.18" pos="65.19" lane="e0_0" slope="0.00"/>
        <vehicle id="ego" x="73.52" y="-1.60" angle="90.00" type="ego_type" speed="0.36" pos="73.52" lane="e0_0" slope="0.00"/>
    </timestep>
    <timestep time="51.50">
        <vehicle id="background.0" x="65.53" y="-1.60" angle="90.00" type="human" speed="0.69" pos="65.53" lane="e0_0" slope="0.00"/>
        <vehicle id="ego" x="73.82" y="-1.60" angle="90.00" type="ego_type" speed="0.61" pos="73.82" lane="e0_0" slope="0.00"/>
    </timestep>
    <timestep time="52.00">
        <vehicle id="background.0" x="65.88" y="-1.60" angle="90.00" type="human" speed="0.69" pos="65.88" lane="e0_0" slope="0.00"/>
        <vehicle id="ego" x="74.12" y="-1.60" angle="90.00" type="ego_type" speed="0.61" pos="74.12" lane="e0_0" slope="0.00"/>
    </timestep>
    <timestep time="52.50">
        <vehicle id="background.0" x="66.19" y="-1.60" angle="90.00" type="human" speed="0.63" pos="66.19" lane="e0_0" slope="0.00"/>
        <vehicle id="ego" x="74.30" y="-1.60" angle="90.00" type="ego_type" speed="0.36" pos="74.30" lane="e0_0" slope="0.00"/>
    </timestep>
    <timestep time="53.00">
        <vehicle id="background.0" x="66.43" y="-1.60" angle="90.00" type="human" speed="0.47" pos="66.43" lane="e0_0" slope="0.00"/>
        <vehicle id="ego" x="74.60" y="-1.60" angle="90.00" type="ego_type" speed="0.61" pos="74.60" lane="e0_0" slope="0.00"/>
    </timestep>
    <timestep time="53.50">
        <vehicle id="background.0" x="66.70" y="-1.60" angle="90.00" type="human" speed="0.54" pos="66.70" lane="e0_0" slope="0.00"/>
        <vehicle id="ego" x="75.40" y="-1.60" angle="90.00" type="ego_type" speed="1.61" pos="75.40" lane="e0_0" slope="0.00"/>
    </timestep>
    <timestep time="54.00">
        <vehicle id="background.0" x="67.17" y="-1.60" angle="90.00" type="human" speed="0.95" pos="67.17" lane="e0_0" slope="0.00"/>
        <vehicle id="ego" x="76.71" y="-1.60" angle="90.00" type="ego_type" speed="2.61" pos="76.71" lane="e0_0" slope="0.00"/>
    </timestep>
    <timestep time="54.50">
        <vehicle id="background.0" x="68.02" y="-1.60" angle="90.00" type="human" speed="1.70" pos="68.02" lane="e0_0" slope="0.00"/>
        <vehicle id="ego" x="77.26" y="-1.60" angle="90.00" type="ego_type" speed="1.11" pos="77.26" lane="e0_0" slope="0.00"/>
    </timestep>
    <timestep time="55.00">
        <vehicle id="background.0" x="68.70" y="-1.60" angle="90.00" type="human" speed="1.36" pos="68.70" lane="e0_0" slope="0.00"/>
        <vehicle id="ego" x="77.81" y="-1.60" angle="90.00" type="ego_type" speed="1.11" pos="77.81" lane="e0_0" slope="0.00"/>
    </timestep>
    <timestep time="55.50">
        <vehicle id="background.0" x="69.41" y="-1.60" angle="90.00" type="human" speed="1.42" pos="69.41" lane="e0_0" slope="0.00"/>
        <vehicle id="ego" x="78.62" y="-1.60" angle="90.00" type="ego_type" speed="1.61" pos="78.62" lane="e0_0" slope="0.00"/>
    </timestep>
    <timestep time="56.00">
        <vehicle id="background.0" x="70.24" y="-1.60" angle="90.00" type="human" speed="1.65" pos="70.24" lane="e0_0" slope="0.00"/>
        <vehicle id="ego" x="79.92" y="-1.60" angle="90.00" type="ego_type" speed="2.61" pos="79.92" lane="e0_0" slope="0.00"/>
    </timestep>
    <timestep time="56.50">
        <vehicle id="background.0" x="71.37" y="-1.60" angle="90.00" type="human" speed="2.26" pos="71.37" lane="e0_0" slope="0.00"/>
        <vehicle id="ego" x="80.85" y="-1.60" angle="90.00" type="ego_type" speed="1.86" pos="80.85" lane="e0_0" slope="0.00"/>
    </timestep>
    <timestep time="57.00">
        <vehicle id="background.0" x="72.18" y="-1.60" angle="90.00" type="human" speed="1.62" pos="72.18" lane="e0_0" slope="0.00"/>
        <vehicle id="ego" x="81.77" y="-1.60" angle="90.00" type="ego_type" speed="1.86" pos="81.77" lane="e0_0" slope="0.00"/>
    </timestep>
    <timestep time="57.50">
        <vehicle id="background.0" x="73.05" y="-1.60" angle="90.00" type="human" speed="1.74" pos="73.05" lane="e0_0" slope="0.00"/>
        <vehicle id="ego" x="82.58" y="-1.60" angle="90.00" type="ego_type" speed="1.61" pos="82.58" lane="e0_0" slope="0.00"/>
    </timestep>
    <timestep time="58.00">
        <vehicle id="background.0" x="73.96" y="-1.60" angle="90.00" type="human" speed="1.81" pos="73.96" lane="e0_0" slope="0.00"/>
        <vehicle id="ego" x="83.50" y="-1.60" angle="90.00" type="ego_type" speed="1.86" pos="83.50" lane="e0_0" slope="0.00"/>
    </timestep>
    <timestep time="58.50">
        <vehicle id="background.0" x="74.94" y="-1.60" angle="90.00" type="human" speed="1.97" pos="74.94" lane="e0_0" slope="0.00"/>
        <vehicle id="ego" x="84.18" y="-1.60" angle="90.00" type="ego_type" speed="1.36" pos="84.18" lane="e0_0" slope="0.00"/>
    </timestep>
    <timestep time="59.00">
        <vehicle id="background.0" x="75.60" y="-1.60" angle="90.00" type="human" speed="1.32" pos="75.60" lane="e0_0" slope="0.00"/>
        <vehicle id="ego" x="84.48" y="-1.60" angle="90.00" type="ego_type" speed="0.61" pos="84.48" lane="e0_0" slope="0.00"/>
    </timestep>
    <timestep time="59.50">
        <vehicle id="background.0" x="76.27" y="-1.60" angle="90.00" type="human" speed="1.34" pos="76.27" lane="e0_0" slope="0.00"/>
        <vehicle id="ego" x="84.54" y="-1.60" angle="90.00" type="ego_type" speed="0.11" pos="84.54" lane="e0_0" slope="0.00"/>
    </timestep>
    <timestep time="60.00">
        <vehicle id="background.0" x="76.60" y="-1.60" angle="90.00" type="human" speed="0.66" pos="76.60" lane="e0_0" slope="0.00"/>
        <vehicle id="ego" x="85.09" y="-1.60" angle="90.00" type="ego_type" speed="1.11" pos="85.09" lane="e0_0" slope="0.00"/>
    </timestep>
    <timestep time="60.50">
        <vehicle id="background.0" x="77.09" y="-1.60" angle="90.00" type="human" speed="0.98" pos="77.09" lane="e0_0" slope="0.00"/>
        <vehicle id="ego" x="85.27" y="-1.60" angle="90.00" type="ego_type" speed="0.36" pos="85.27" lane="e0_0" slope="0.00"/>
    </timestep>
    <timestep time="61.00">
        <vehicle id="background.0" x="77.43" y="-1.60" angle="90.00" type="human" speed="0.67" pos="77.43" lane="e0_0" slope="0.00"/>
        <vehicle id="ego" x="85.82" y="-1.60" angle="90.00" type="ego_type" speed="1.11" pos="85.82" lane="e0_0" slope="0.00"/>
    </timestep>
    <timestep time="61.50">