<?xml version="1.0" encoding="UTF-8"?>

<!-- generated on 2026-05-13 21:24:35 by Eclipse SUMO sumo Version 1.24.0
<sumoConfiguration xmlns:xsi="http://www.w3.org/2001/XMLSchema-instance" xsi:noNamespaceSchemaLocation="http://sumo.dlr.de/xsd/sumoConfiguration.xsd">

    <input>
        <net-file value="scenarios/simple_arterial/simple_arterial.net.xml"/>
        <route-files value="scenarios/simple_arterial/simple_arterial.rou.xml"/>
        <additional-files value="scenarios/simple_arterial/simple_arterial.tls.xml"/>
    </input>

    <output>
        <fcd-output value="runs/fcd_random/episode_00002_seed_102.fcd.xml"/>
    </output>

    <time>
        <begin value="0"/>
        <end value="900"/>
        <step-length value="0.5"/>
    </time>

    <report>
        <no-warnings value="true"/>
    </report>

    <traci_server>
        <remote-port value="30543"/>
    </traci_server>

    <random_number>
        <seed value="102"/>
    </random_number>

</sumoConfiguration>
-->

<fcd-export xmlns:xsi="http://www.w3.org/2001/XMLSchema-instance" xsi:noNamespaceSchemaLocation="http://sumo.dlr.de/xsd/fcd_file.xsd">
    <timestep time="0.00"/>
    <timestep time="0.50"/>
    <timestep time="1.00"/>
    <timestep time="1.50"/>
    <timestep time="2.00"/>
    <timestep time="2.50"/>
    <timestep time="3.00"/>
    <timestep time="3.50"/>
    <timestep time="4.00"/>
    <timestep time="4.50"/>
    <timestep time="5.00"/>
    <timestep time="5.50"/>
    <timestep time="6.00"/>
    <timestep time="6.50"/>
    <timestep time="7.00"/>
    <timestep time="7.50"/>
    <timestep time="8.00"/>
    <timestep time="8.50"/>
    <timestep time="9.00"/>
    <timestep time="9.50"/>
    <timestep time="10.00"/>
    <timestep time="10.50"/>
    <timestep time="11.00"/>
    <timestep time="11.50">
        <vehicle id="background.0" x="5.10" y="-1.60" angle="90.00" type="human" speed="13.89" pos="5.10" lane="e0_0" slope="0.00"/>
    </timestep>
    <timestep time="12.00">
        <vehicle id="background.0" x="11.94" y="-1.60" angle="90.00" type="human" speed="13.67" pos="11.94" lane="e0_0" slope="0.00"/>
    </timestep>
    <timestep time="12.50">
        <vehicle id="background.0" x="18.82" y="-1.60" angle="90.00" type="human" speed="13.76" pos="18.82" lane="e0_0" slope="0.00"/>
    </timestep>
    <timestep time="13.00">
        <vehicle id="background.0" x="25.72" y="-1.60" angle="90.00" type="human" speed="13.80" pos="25.72" lane="e0_0" slope="0.00"/>
    </timestep>
    <timestep time="13.50">
        <vehicle id="background.0" x="32.46" y="-1.60" angle="90.00" type="human" speed="13.49" pos="32.46" lane="e0_0" slope="0.00"/>
    </timestep>
    <timestep time="14.00">
        <vehicle id="background.0" x="39.36" y="-1.60" angle="90.00" type="human" speed="13.80" pos="39.36" lane="e0_0" slope="0.00"/>
    </timestep>
    <timestep time="14.50">
        <vehicle id="background.0" x="46.30" y="-1.60" angle="90.00" type="human" speed="13.86" pos="46.30" lane="e0_0" slope="0.00"/>
        <vehicle id="ego" x="5.10" y="-1.60" angle="90.00" type="ego_type" speed="0.00" pos="5.10" lane="e0_0" slope="0.00"/>
    </timestep>
    <timestep time="15.00">
        <vehicle id="background.0" x="53.03" y="-1.60" angle="90.00" type="human" speed="13.48" pos="53.03" lane="e0_0" slope="0.00"/>
        <vehicle id="ego" x="5.10" y="-1.60" angle="90.00" type="ego_type" speed="0.00" pos="5.10" lane="e0_0" slope="0.00"/>
    </timestep>
    <timestep time="15.50">
        <vehicle id="background.0" x="59.83" y="-1.60" angle="90.00" type="human" speed="13.60" pos="59.83" lane="e0_0" slope="0.00"/>
        <vehicle id="ego" x="5.60" y="-1.60" angle="90.00" type="ego_type" speed="1.00" pos="5.60" lane="e0_0" slope="0.00"/>
    </timestep>
    <timestep time="16.00">
        <vehicle id="background.0" x="66.66" y="-1.60" angle="90.00" type="human" speed="13.66" pos="66.66" lane="e0_0" slope="0.00"/>
        <vehicle id="ego" x="6.60" y="-1.60" angle="90.00" type="ego_type" speed="2.00" pos="6.60" lane="e0_0" slope="0.00"/>
    </timestep>
    <timestep time="16.50">
        <vehicle id="background.0" x="73.40" y="-1.60" angle="90.00" type="human" speed="13.48" pos="73.40" lane="e0_0" slope="0.00"/>
        <vehicle id="ego" x="6.85" y="-1.60" angle="90.00" type="ego_type" speed="0.50" pos="6.85" lane="e0_0" slope="0.00"/>
    </timestep>
    <timestep time="17.00">
        <vehicle id="background.0" x="80.14" y="-1.60" angle="90.00" type="human" speed="13.48" pos="80.14" lane="e0_0" slope="0.00"/>
        <vehicle id="ego" x="7.35" y="-1.60" angle="90.00" type="ego_type" speed="1.00" pos="7.35" lane="e0_0" slope="0.00"/>
    </timestep>
    <timestep time="17.50">
        <vehicle id="background.0" x="87.01" y="-1.60" angle="90.00" type="human" speed="13.74" pos="87.01" lane="e0_0" slope="0.00"/>
        <vehicle id="ego" x="8.10" y="-1.60" angle="90.00" type="ego_type" speed="1.50" pos="8.10" lane="e0_0" slope="0.00"/>
    </timestep>
    <timestep time="18.00">
        <vehicle id="background.0" x="93.90" y="-1.60" angle="90.00" type="human" speed="13.79" pos="93.90" lane="e0_0" slope="0.00"/>
        <vehicle id="ego" x="9.35" y="-1.60" angle="90.00" type="ego_type" speed="2.50" pos="9.35" lane="e0_0" slope="0.00"/>
    </timestep>
    <timestep time="18.50">
        <vehicle id="background.0" x="100.75" y="-1.60" angle="90.00" type="human" speed="13.69" pos="100.75" lane="e0_0" slope="0.00"/>
        <vehicle id="ego" x="11.10" y="-1.60" angle="90.00" type="ego_type" speed="3.50" pos="11.10" lane="e0_0" slope="0.00"/>
    </timestep>
    <timestep time="19.00">
        <vehicle id="background.0" x="107.46" y="-1.60" angle="90.00" type="human" speed="13.42" pos="107.46" lane="e0_0" slope="0.00"/>
        <vehicle id="ego" x="13.10" y="-1.60" angle="90.00" type="ego_type" speed="4.00" pos="13.10" lane="e0_0" slope="0.00"/>
    </timestep>
    <timestep time="19.50">
        <vehicle id="background.0" x="114.23" y="-1.60" angle="90.00" type="human" speed="13.55" pos="114.23" lane="e0_0" slope="0.00"/>
        <vehicle id="ego" x="14.72" y="-1.60" angle="90.00" type="ego_type" speed="3.25" pos="14.72" lane="e0_0" slope="0.00"/>
    </timestep>
    <timestep time="20.00">
        <vehicle id="background.0" x="121.02" y="-1.60" angle="90.00" type="human" speed="13.59" pos="121.02" lane="e0_0" slope="0.00"/>
        <vehicle id="ego" x="15.97" y="-1.60" angle="90.00" type="ego_type" speed="2.50" pos="15.97" lane="e0_0" slope="0.00"/>
    </timestep>
    <timestep time="20.50">
        <vehicle id="background.0" x="127.80" y="-1.60" angle="90.00" type="human" speed="13.55" pos="127.80" lane="e0_0" slope="0.00"/>
        <vehicle id="ego" x="16.85" y="-1.60" angle="90.00" type="ego_type" speed="1.75" pos="16.85" lane="e0_0" slope="0.00"/>
    </timestep>
    <timestep time="21.00">
        <vehicle id="background.0" x="134.74" y="-1.60" angle="90.00" type="human" speed="13.89" pos="134.74" lane="e0_0" slope="0.00"/>
        <vehicle id="background.1" x="5.10" y="-1.60" angle="90.00" type="human" speed="3.67" pos="5.10" lane="e0_0" slope="0.00"/>
        <vehicle id="ego" x="16.98" y="-1.60" angle="90.00" type="ego_type" speed="0.25" pos="16.98" lane="e0_0" slope="0.00"/>
    </timestep>
    <timestep time="21.50">
        <vehicle id="background.0" x="141.60" y="-1.60" angle="90.00" type="human" speed="13.72" pos="141.60" lane="e0_0" slope="0.00"/>
        <vehicle id="background.1" x="6.84" y="-1.60" angle="90.00" type="human" speed="3.49" pos="6.84" lane="e0_0" slope="0.00"/>
        <vehicle id="ego" x="16.98" y="-1.60" angle="90.00" type="ego_type" speed="0.00" pos="16.98" lane="e0_0" slope="0.00"/>
    </timestep>
    <timestep time="22.00">
        <vehicle id="background.0" x="148.31" y="-1.60" angle="90.00" type="human" speed="13.40" pos="148.31" lane="e0_0" slope="0.00"/>
        <vehicle id="background.1" x="8.05" y="-1.60" angle="90.00" type="human" speed="2.41" pos="8.05" lane="e0_0" slope="0.00"/>
        <vehicle id="ego" x="16.98" y="-1.60" angle="90.00" type="ego_type" speed="0.00" pos="16.98" lane="e0_0" slope="0.00"/>
    </timestep>
    <timestep time="22.50">
        <vehicle id="background.0" x="155.03" y="-1.60" angle="90.00" type="human" speed="13.45" pos="155.03" lane="e0_0" slope="0.00"/>
        <vehicle id="background.1" x="8.63" y="-1.60" angle="90.00" type="human" speed="1.16" pos="8.63" lane="e0_0" slope="0.00"/>
        <vehicle id="ego" x="16.98" y="-1.60" angle="90.00" type="ego_type" speed="0.00" pos="16.98" lane="e0_0" slope="0.00"/>
    </timestep>
    <timestep time="23.00">
        <vehicle id="background.0" x="161.91" y="-1.60" angle="90.00" type="human" speed="13.76" pos="161.91" lane="e0_0" slope="0.00"/>
        <vehicle id="background.1" x="9.01" y="-1.60" angle="90.00" type="human" speed="0.76" pos="9.01" lane="e0_0" slope="0.00"/>
        <vehicle id="ego" x="16.98" y="-1.60" angle="90.00" type="ego_type" speed="0.00" pos="16.98" lane="e0_0" slope="0.00"/>
    </timestep>
    <timestep time="23.50">
        <vehicle id="background.0" x="168.76" y="-1.60" angle="90.00" type="human" speed="13.70" pos="168.76" lane="e0_0" slope="0.00"/>
        <vehicle id="background.1" x="9.21" y="-1.60" angle="90.00" type="human" speed="0.40" pos="9.21" lane="e0_0" slope="0.00"/>
        <vehicle id="ego" x="16.98" y="-1.60" angle="90.00" type="ego_type" speed="0.00" pos="16.98" lane="e0_0" slope="0.00"/>
    </timestep>
    <timestep time="24.00">
        <vehicle id="background.0" x="175.61" y="-1.60" angle="90.00" type="human" speed="13.71" pos="175.61" lane="e0_0" slope="0.00"/>
        <vehicle id="background.1" x="9.31" y="-1.60" angle="90.00" type="human" speed="0.22" pos="9.31" lane="e0_0" slope="0.00"/>
        <vehicle id="ego" x="16.98" y="-1.60" angle="90.00" type="ego_type" speed="0.00" pos="16.98" lane="e0_0" slope="0.00"/>
    </timestep>
    <timestep time="24.50">
        <vehicle id="background.0" x="182.41" y="-1.60" angle="90.00" type="human" speed="13.59" pos="182.41" lane="e0_0" slope="0.00"/>
        <vehicle id="background.1" x="9.39" y="-1.60" angle="90.00" type="human" speed="0.16" pos="9.39" lane="e0_0" slope="0.00"/>
        <vehicle id="ego" x="17.48" y="-1.60" angle="90.00" type="ego_type" speed="1.00" pos="17.48" lane="e0_0" slope="0.00"/>
    </timestep>
    <timestep time="25.00">
        <vehicle id="background.0" x="189.32" y="-1.60" angle="90.00" type="human" speed="13.81" pos="189.32" lane="e0_0" slope="0.00"/>
        <vehicle id="background.1" x="9.68" y="-1.60" angle="90.00" type="human" speed="0.58" pos="9.68" lane="e0_0" slope="0.00"/>
        <vehicle id="ego" x="18.23" y="-1.60" angle="90.00" type="ego_type" speed="1.50" pos="18.23" lane="e0_0" slope="0.00"/>
    </timestep>
    <timestep time="25.50">
        <vehicle id="background.0" x="196.12" y="-1.60" angle="90.00" type="human" speed="13.60" pos="196.12" lane="e0_0" slope="0.00"/>
        <vehicle id="background.1" x="10.19" y="-1.60" angle="90.00" type="human" speed="1.01" pos="10.19" lane="e0_0" slope="0.00"/>
        <vehicle id="ego" x="18.60" y="-1.60" angle="90.00" type="ego_type" speed="0.75" pos="18.60" lane="e0_0" slope="0.00"/>
    </timestep>
    <timestep time="26.00">
        <vehicle id="background.0" x="202.83" y="-1.60" angle="90.00" type="human" speed="13.42" pos="202.83" lane="e0_0" slope="0.00"/>
        <vehicle id="background.1" x="10.62" y="-1.60" angle="90.00" type="human" speed="0.86" pos="10.62" lane="e0_0" slope="0.00"/>
        <vehicle id="ego" x="19.48" y="-1.60" angle="90.00" type="ego_type" speed="1.75" pos="19.48" lane="e0_0" slope="0.00"/>
    </timestep>
    <timestep time="26.50">
        <vehicle id="background.0" x="209.76" y="-1.60" angle="90.00" type="human" speed="13.86" pos="209.76" lane="e0_0" slope="0.00"/>
        <vehicle id="background.1" x="11.20" y="-1.60" angle="90.00" type="human" speed="1.16" pos="11.20" lane="e0_0" slope="0.00"/>
        <vehicle id="ego" x="19.98" y="-1.60" angle="90.00" type="ego_type" speed="1.00" pos="19.98" lane="e0_0" slope="0.00"/>
    </timestep>
    <timestep time="27.00">
        <vehicle id="background.0" x="216.56" y="-1.60" angle="90.00" type="human" speed="13.62" pos="216.56" lane="e0_0" slope="0.00"/>
        <vehicle id="background.1" x="11.83" y="-1.60" angle="90.00" type="human" speed="1.27" pos="11.83" lane="e0_0" slope="0.00"/>
        <vehicle id="ego" x="20.98" y="-1.60" angle="90.00" type="ego_type" speed="2.00" pos="20.98" lane="e0_0" slope="0.00"/>
    </timestep>
    <timestep time="27.50">
        <vehicle id="background.0" x="223.42" y="-1.60" angle="90.00" type="human" speed="13.72" pos="223.42" lane="e0_0" slope="0.00"/>
        <vehicle id="background.1" x="12.57" y="-1.60" angle="90.00" type="human" speed="1.47" pos="12.57" lane="e0_0" slope="0.00"/>
        <vehicle id="ego" x="22.23" y="-1.60" angle="90.00" type="ego_type" speed="2.50" pos="22.23" lane="e0_0" slope="0.00"/>
    </timestep>
    <timestep time="28.00">
        <vehicle id="background.0" x="230.33" y="-1.60" angle="90.00" type="human" speed="13.81" pos="230.33" lane="e0_0" slope="0.00"/>
        <vehicle id="background.1" x="13.46" y="-1.60" angle="90.00" type="human" speed="1.79" pos="13.46" lane="e0_0" slope="0.00"/>
        <vehicle id="ego" x="23.48" y="-1.60" angle="90.00" type="ego_type" speed="2.50" pos="23.48" lane="e0_0" slope="0.00"/>
    </timestep>
    <timestep time="28.50">
        <vehicle id="background.0" x="237.08" y="-1.60" angle="90.00" type="human" speed="13.51" pos="237.08" lane="e0_0" slope="0.00"/>
        <vehicle id="background.1" x="14.58" y="-1.60" angle="90.00" type="human" speed="2.24" pos="14.58" lane="e0_0" slope="0.00"/>
        <vehicle id="ego" x="23.98" y="-1.60" angle="90.00" type="ego_type" speed="1.00" pos="23.98" lane="e0_0" slope="0.00"/>
    </timestep>
    <timestep time="29.00">
        <vehicle id="background.0" x="243.89" y="-1.60" angle="90.00" type="human" speed="13.61" pos="243.89" lane="e0_0" slope="0.00"/>
        <vehicle id="background.1" x="15.30" y="-1.60" angle="90.00" type="human" speed="1.45" pos="15.30" lane="e0_0" slope="0.00"/>
        <vehicle id="ego" x="24.48" y="-1.60" angle="90.00" type="ego_type" speed="1.00" pos="24.48" lane="e0_0" slope="0.00"/>
    </timestep>
    <timestep time="29.50">
        <vehicle id="background.0" x="250.64" y="-1.60" angle="90.00" type="human" speed="13.50" pos="250.64" lane="e0_0" slope="0.00"/>
        <vehicle id="background.1" x="16.12" y="-1.60" angle="90.00" type="human" speed="1.64" pos="16.12" lane="e0_0" slope="0.00"/>
        <vehicle id="ego" x="24.98" y="-1.60" angle="90.00" type="ego_type" speed="1.00" pos="24.98" lane="e0_0" slope="0.00"/>
    </timestep>
    <timestep time="30.00">
        <vehicle id="background.0" x="257.36" y="-1.60" angle="90.00" type="human" speed="13.45" pos="257.36" lane="e0_0" slope="0.00"/>
        <vehicle id="background.1" x="16.68" y="-1.60" angle="90.00" type="human" speed="1.13" pos="16.68" lane="e0_0" slope="0.00"/>
        <vehicle id="ego" x="25.97" y="-1.60" angle="90.00" type="ego_type" speed="2.00" pos="25.98" lane="e0_0" slope="0.00"/>
    </timestep>
    <timestep time="30.50">
        <vehicle id="background.0" x="264.16" y="-1.60" angle="90.00" type="human" speed="13.60" pos="264.16" lane="e0_0" slope="0.00"/>
        <vehicle id="background.1" x="17.44" y="-1.60" angle="90.00" type="human" speed="1.52" pos="17.44" lane="e0_0" slope="0.00"/>
        <vehicle id="ego" x="26.98" y="-1.60" angle="90.00" type="ego_type" speed="2.00" pos="26.98" lane="e0_0" slope="0.00"/>
    </timestep>
    <timestep time="31.00">
        <vehicle id="background.0" x="270.94" y="-1.60" angle="90.00" type="human" speed="13.55" pos="270.94" lane="e0_0" slope="0.00"/>
        <vehicle id="background.1" x="18.24" y="-1.60" angle="90.00" type="human" speed="1.59" pos="18.24" lane="e0_0" slope="0.00"/>
        <vehicle id="ego" x="28.23" y="-1.60" angle="90.00" type="ego_type" speed="2.50" pos="28.23" lane="e0_0" slope="0.00"/>
    </timestep>
    <timestep time="31.50">
        <vehicle id="background.0" x="277.74" y="-1.60" angle="90.00" type="human" speed="13.61" pos="277.74" lane="e0_0" slope="0.00"/>
        <vehicle id="background.1" x="19.46" y="-1.60" angle="90.00" type="human" speed="2.45" pos="19.46" lane="e0_0" slope="0.00"/>
        <vehicle id="ego" x="28.73" y="-1.60" angle="90.00" type="ego_type" speed="1.00" pos="28.73" lane="e0_0" slope="0.00"/>
    </timestep>
    <timestep time="32.00">
        <vehicle id="background.0" x="284.46" y="-1.60" angle="90.00" type="human" speed="13.44" pos="284.46" lane="e0_0" slope="0.00"/>
        <vehicle id="background.1" x="20.26" y="-1.60" angle="90.00" type="human" speed="1.59" pos="20.26" lane="e0_0" slope="0.00"/>
        <vehicle id="ego" x="29.73" y="-1.60" angle="90.00" type="ego_type" speed="2.00" pos="29.73" lane="e0_0" slope="0.00"/>
    </timestep>
    <timestep time="32.50">
        <vehicle id="background.0" x="291.27" y="-1.60" angle="90.00" type="human" speed="13.62" pos="291.27" lane="e0_0" slope="0.00"/>
        <vehicle id="background.1" x="21.16" y="-1.60" angle="90.00" type="human" speed="1.80" pos="21.16" lane="e0_0" slope="0.00"/>
        <vehicle id="ego" x="29.98" y="-1.60" angle="90.00" type="ego_type" speed="0.50" pos="29.98" lane="e0_0" slope="0.00"/>
    </timestep>
    <timestep time="33.00">
        <vehicle id="background.0" x="298.08" y="-1.60" angle="90.00" type="human" speed="13.62" pos="298.08" lane="e0_0" slope="0.00"/>
        <vehicle id="background.1" x="21.68" y="-1.60" angle="90.00" type="human" speed="1.04" pos="21.68" lane="e0_0" slope="0.00"/>
        <vehicle id="ego" x="30.48" y="-1.60" angle="90.00" type="ego_type" speed="1.00" pos="30.48" lane="e0_0" slope="0.00"/>
    </timestep>
    <timestep time="33.50">
        <vehicle id="background.0" x="304.87" y="-1.60" angle="90.00" type="human" speed="13.78" pos="4.87" lane="e1_0" slope="0.00"/>
        <vehicle id="background.1" x="22.30" y="-1.60" angle="90.00" type="human" speed="1.24" pos="22.30" lane="e0_0" slope="0.00"/>
        <vehicle id="ego" x="31.48" y="-1.60" angle="90.00" type="ego_type" speed="2.00" pos="31.48" lane="e0_0" slope="0.00"/>
    </timestep>
    <timestep time="34.00">
        <vehicle id="background.0" x="311.78" y="-1.60" angle="90.00" type="human" speed="13.82" pos="11.78" lane="e1_0" slope="0.00"/>
        <vehicle id="background.1" x="23.04" y="-1.60" angle="90.00" type="human" speed="1.48" pos="23.04" lane="e0_0" slope="0.00"/>
        <vehicle id="ego" x="32.10" y="-1.60" angle="90.00" type="ego_type" speed="1.25" pos="32.10" lane="e0_0" slope="0.00"/>
    </timestep>
    <timestep time="34.50">
        <vehicle id="background.0" x="318.69" y="-1.60" angle="90.00" type="human" speed="13.83" pos="18.69" lane="e1_0" slope="0.00"/>
        <vehicle id="background.1" x="23.75" y="-1.60" angle="90.00" type="human" speed="1.42" pos="23.75" lane="e0_0" slope="0.00"/>
        <vehicle id="ego" x="32.73" y="-1.60" angle="90.00" type="ego_type" speed="1.25" pos="32.73" lane="e0_0" slope="0.00"/>
    </timestep>
    <timestep time="35.00">
        <vehicle id="background.0" x="325.58" y="-1.60" angle="90.00" type="human" speed="13.78" pos="25.58" lane="e1_0" slope="0.00"/>
        <vehicle id="background.1" x="24.33" y="-1.60" angle="90.00" type="human" speed="1.17" pos="24.33" lane="e0_0" slope="0.00"/>
        <vehicle id="ego" x="33.35" y="-1.60" angle="90.00" type="ego_type" speed="1.25" pos="33.35" lane="e0_0" slope="0.00"/>
    </timestep>
    <timestep time="35.50">
        <vehicle id="background.0" x="332.33" y="-1.60" angle="90.00" type="human" speed="13.50" pos="32.33" lane="e1_0" slope="0.00"/>
        <vehicle id="background.1" x="25.06" y="-1.60" angle="90.00" type="human" speed="1.46" pos="25.06" lane="e0_0" slope="0.00"/>
        <vehicle id="ego" x="33.35" y="-1.60" angle="90.00" type="ego_type" speed="0.00" pos="33.35" lane="e0_0" slope="0.00"/>
    </timestep>
    <timestep time="36.00">
        <vehicle id="background.0" x="339.07" y="-1.60" angle="90.00" type="human" speed="13.49" pos="39.07" lane="e1_0" slope="0.00"/>
        <vehicle id="background.1" x="25.38" y="-1.60" angle="90.00" type="human" speed="0.62" pos="25.38" lane="e0_0" slope="0.00"/>
        <vehicle id="ego" x="33.35" y="-1.60" angle="90.00" type="ego_type" speed="0.00" pos="33.35" lane="e0_0" slope="0.00"/>
    </timestep>
    <timestep time="36.50">
        <vehicle id="background.0" x="345.91" y="-1.60" angle="90.00" type="human" speed="13.68" pos="45.91" lane="e1_0" slope="0.00"/>
        <vehicle id="background.1" x="25.60" y="-1.60" angle="90.00" type="human" speed="0.45" pos="25.60" lane="e0_0" slope="0.00"/>
        <vehicle id="ego" x="33.85" y="-1.60" angle="90.00" type="ego_type" speed="1.00" pos="33.85" lane="e0_0" slope="0.00"/>
    </timestep>
    <timestep time="37.00">
        <vehicle id="background.1" x="25.92" y="-1.60" angle="90.00" type="human" speed="0.64" pos="25.92" lane="e0_0" slope="0.00"/>
        <vehicle id="ego" x="34.85" y="-1.60" angle="90.00" type="ego_type" speed="2.00" pos="34.85" lane="e0_0" slope="0.00"/>
    </timestep>
    <timestep time="37.50">
        <vehicle id="background.1" x="26.61" y="-1.60" angle="90.00" type="human" speed="1.38" pos="26.61" lane="e0_0" slope="0.00"/>
        <vehicle id="ego" x="36.10" y="-1.60" angle="90.00" type="ego_type" speed="2.50" pos="36.10" lane="e0_0" slope="0.00"/>
    </timestep>
    <timestep time="38.00">
        <vehicle id="background.1" x="27.50" y="-1.60" angle="90.00" type="human" speed="1.76" pos="27.50" lane="e0_0" slope="0.00"/>
        <vehicle id="ego" x="36.60" y="-1.60" angle="90.00" type="ego_type" speed="1.00" pos="36.60" lane="e0_0" slope="0.00"/>
    </timestep>
    <timestep time="38.50">
        <vehicle id="background.1" x="28.29" y="-1.60" angle="90.00" type="human" speed="1.59" pos="28.29" lane="e0_0" slope="0.00"/>
        <vehicle id="ego" x="37.35" y="-1.60" angle="90.00" type="ego_type" speed="1.50" pos="37.35" lane="e0_0" slope="0.00"/>
    </timestep>
    <timestep time="39.00">
        <vehicle id="background.1" x="29.01" y="-1.60" angle="90.00" type="human" speed="1.44" pos="29.01" lane="e0_0" slope="0.00"/>
        <vehicle id="ego" x="38.60" y="-1.60" angle="90.00" type="ego_type" speed="2.50" pos="38.60" lane="e0_0" slope="0.00"/>
    </timestep>
    <timestep time="39.50">
        <vehicle id="background.1" x="29.89" y="-1.60" angle="90.00" type="human" speed="1.76" pos="29.89" lane="e0_0" slope="0.00"/>
        <vehicle id="ego" x="40.10" y="-1.60" angle="90.00" type="ego_type" speed="3.00" pos="40.10" lane="e0_0" slope="0.00"/>
    </timestep>
    <timestep time="40.00">
        <vehicle id="background.1" x="31.20" y="-1.60" angle="90.00" type="human" speed="2.62" pos="31.20" lane="e0_0" slope="0.00"/>
        <vehicle id="ego" x="41.22" y="-1.60" angle="90.00" type="ego_type" speed="2.25" pos="41.23" lane="e0_0" slope="0.00"/>
    </timestep>
    <timestep time="40.50">
        <vehicle id="background.1" x="32.37" y="-1.60" angle="90.00" type="human" speed="2.32" pos="32.37" lane="e0_0" slope="0.00"/>
        <vehicle id="ego" x="41.98" y="-1.60" angle="90.00" type="ego_type" speed="1.50" pos="41.98" lane="e0_0" slope="0.00"/>
    </timestep>
    <timestep time="41.00">
        <vehicle id="background.1" x="33.41" y="-1.60" angle="90.00" type="human" speed="2.09" pos="33.41" lane="e0_0" slope="0.00"/>
        <vehicle id="ego" x="41.98" y="-1.60" angle="90.00" type="ego_type" speed="0.00" pos="41.98" lane="e0_0" slope="0.00"/>
    </timestep>
    <timestep time="41.50">
        <vehicle id="background.1" x="33.94" y="-1.60" angle="90.00" type="human" speed="1.05" pos="33.94" lane="e0_0" slope="0.00"/>
        <vehicle id="ego" x="41.98" y="-1.60" angle="90.00" type="ego_type" speed="0.00" pos="41.98" lane="e0_0" slope="0.00"/>
    </timestep>
    <timestep time="42.00">
        <vehicle id="background.1" x="34.15" y="-1.60" angle="90.00" type="human" speed="0.42" pos="34.15" lane="e0_0" slope="0.00"/>
        <vehicle id="ego" x="42.23" y="-1.60" angle="90.00" type="ego_type" speed="0.50" pos="42.23" lane="e0_0" slope="0.00"/>
    </timestep>
    <timestep time="42.50">
        <vehicle id="background.1" x="34.37" y="-1.60" angle="90.00" type="human" speed="0.44" pos="34.37" lane="e0_0" slope="0.00"/>
        <vehicle id="ego" x="42.48" y="-1.60" angle="90.00" type="ego_type" speed="0.50" pos="42.48" lane="e0_0" slope="0.00"/>
    </timestep>
    <timestep time="43.00">
        <vehicle id="background.1" x="34.65" y="-1.60" angle="90.00" type="human" speed="0.57" pos="34.65" lane="e0_0" slope="0.00"/>
        <vehicle id="ego" x="42.48" y="-1.60" angle="90.00" type="ego_type" speed="0.00" pos="42.48" lane="e0_0" slope="0.00"/>
    </timestep>
    <timestep time="43.50">
        <vehicle id="background.1" x="34.77" y="-1.60" angle="90.00" type="human" speed="0.25" pos="34.77" lane="e0_0" slope="0.00"/>
        <vehicle id="ego" x="42.73" y="-1.60" angle="90.00" type="ego_type" speed="0.50" pos="42.73" lane="e0_0" slope="0.00"/>
    </timestep>
    <timestep time="44.00">
        <vehicle id="background.1" x="35.00" y="-1.60" angle="90.00" type="human" speed="0.45" pos="35.00" lane="e0_0" slope="0.00"/>
        <vehicle id="ego" x="42.73" y="-1.60" angle="90.00" type="ego_type" speed="0.00" pos="42.73" lane="e0_0" slope="0.00"/>
    </timestep>
    <timestep time="44.50">
        <vehicle id="background.1" x="35.10" y="-1.60" angle="90.00" type="human" speed="0.21" pos="35.10" lane="e0_0" slope="0.00"/>
        <vehicle id="ego" x="42.73" y="-1.60" angle="90.00" type="ego_type" speed="0.00" pos="42.73" lane="e0_0" slope="0.00"/>
    </timestep>
    <timestep time="45.00">
        <vehicle id="background.1" x="35.15" y="-1.60" angle="90.00" type="human" speed="0.10" pos="35.15" lane="e0_0" slope="0.00"/>
        <vehicle id="ego" x="42.73" y="-1.60" angle="90.00" type="ego_type" speed="0.00" pos="42.73" lane="e0_0" slope="0.00"/>
    </timestep>
    <timestep time="45.50">
        <vehicle id="background.1" x="35.18" y="-1.60" angle="90.00" type="human" speed="0.06" pos="35.18" lane="e0_0" slope="0.00"/>
        <vehicle id="ego" x="43.23" y="-1.60" angle="90.00" type="ego_type" speed="1.00" pos="43.23" lane="e0_0" slope="0.00"/>
    </timestep>
    <timestep time="46.00">
        <vehicle id="background.1" x="35.40" y="-1.60" angle="90.00" type="human" speed="0.44" pos="35.40" lane="e0_0" slope="0.00"/>
        <vehicle id="ego" x="44.23" y="-1.60" angle="90.00" type="ego_type" speed="2.00" pos="44.23" lane="e0_0" slope="0.00"/>
    </timestep>
    <timestep time="46.50">
        <vehicle id="background.1" x="35.97" y="-1.60" angle="90.00" type="human" speed="1.13" pos="35.97" lane="e0_0" slope="0.00"/>
        <vehicle id="ego" x="44.85" y="-1.60" angle="90.00" type="ego_type" speed="1.25" pos="44.85" lane="e0_0" slope="0.00"/>
    </timestep>
    <timestep time="47.00">
        <vehicle id="background.1" x="36.50" y="-1.60" angle="90.00" type="human" speed="1.06" pos="36.50" lane="e0_0" slope="0.00"/>
        <vehicle id="ego" x="45.98" y="-1.60" angle="90.00" type="ego_type" speed="2.25" pos="45.98" lane="e0_0" slope="0.00"/>
    </timestep>
    <timestep time="47.50">
        <vehicle id="background.1" x="37.36" y="-1.60" angle="90.00" type="human" speed="1.72" pos="37.36" lane="e0_0" slope="0.00"/>
        <vehicle id="ego" x="46.73" y="-1.60" angle="90.00" type="ego_type" speed="1.50" pos="46.73" lane="e0_0" slope="0.00"/>
    </timestep>
    <timestep time="48.00">
        <vehicle id="background.1" x="38.09" y="-1.60" angle="90.00" type="human" speed="1.45" pos="38.09" lane="e0_0" slope="0.00"/>
        <vehicle id="ego" x="46.73" y="-1.60" angle="90.00" type="ego_type" speed="0.00" pos="46.73" lane="e0_0" slope="0.00"/>
    </timestep>
    <timestep time="48.50">
        <vehicle id="background.1" x="38.59" y="-1.60" angle="90.00" type="human" speed="1.00" pos="38.59" lane="e0_0" slope="0.00"/>
        <vehicle id="ego" x="46.73" y="-1.60" angle="90.00" type="ego_type" speed="0.00" pos="46.73" lane="e0_0" slope="0.00"/>
    </timestep>
    <timestep time="49.00">
        <vehicle id="background.1" x="38.89" y="-1.60" angle="90.00" type="human" speed="0.60" pos="38.89" lane="e0_0" slope="0.00"/>
        <vehicle id="ego" x="46.73" y="-1.60" angle="90.00" type="ego_type" speed="0.00" pos="46.73" lane="e0_0" slope="0.00"/>
    </timestep>
    <timestep time="49.50">
        <vehicle id="background.1" x="39.02" y="-1.60" angle="90.00" type="human" speed="0.26" pos="39.02" lane="e0_0" slope="0.00"/>
        <vehicle id="ego" x="46.73" y="-1.60" angle="90.00" type="ego_type" speed="0.00" pos="46.73" lane="e0_0" slope="0.00"/>
    </timestep>
    <timestep time="50.00">
        <vehicle id="background.1" x="39.12" y="-1.60" angle="90.00" type="human" speed="0.19" pos="39.12" lane="e0_0" slope="0.00"/>
        <vehicle id="ego" x="46.73" y="-1.60" angle="90.00" type="ego_type" speed="0.00" pos="46.73" lane="e0_0" slope="0.00"/>
    </timestep>
    <timestep time="50.50">
        <vehicle id="background.1" x="39.17" y="-1.60" angle="90.00" type="human" speed="0.10" pos="39.17" lane="e0_0" slope="0.00"/>
        <vehicle id="ego" x="46.73" y="-1.60" angle="90.00" type="ego_type" speed="0.00" pos="46.73" lane="e0_0" slope="0.00"/>
    </timestep>
    <timestep time="51.00">
        <vehicle id="background.1" x="39.19" y="-1.60" angle="90.00" type="human" speed="0.04" pos="39.19" lane="e0_0" slope="0.00"/>
        <vehicle id="ego" x="46.73" y="-1.60" angle="90.00" type="ego_type" speed="0.00" pos="46.73" lane="e0_0" slope="0.00"/>
    </timestep>
    <timestep time="51.50">