<?xml version="1.0" encoding="UTF-8"?>

<!-- generated on 2026-05-13 21:24:50 by Eclipse SUMO sumo Version 1.24.0
<sumoConfiguration xmlns:xsi="http://www.w3.org/2001/XMLSchema-instance" xsi:noNamespaceSchemaLocation="http://sumo.dlr.de/xsd/sumoConfiguration.xsd">

    <input>
        <net-file value="scenarios/simple_arterial/simple_arterial.net.xml"/>
        <route-files value="scenarios/simple_arterial/simple_arterial.rou.xml"/>
        <additional-files value="scenarios/simple_arterial/simple_arterial.tls.xml"/>
    </input>

    <output>
        <fcd-output value="runs/fcd_random/episode_00013_seed_113.fcd.xml"/>
    </output>

    <time>
        <begin value="0"/>
        <end value="900"/>
        <step-length value="0.5"/>
    </time>

    <report>
        <no-warnings value="true"/>
    </report>

    <traci_server>
        <remote-port value="30543"/>
    </traci_server>

    <random_number>
        <seed value="113"/>
    </random_number>

</sumoConfiguration>
-->

<fcd-export xmlns:xsi="http://www.w3.org/2001/XMLSchema-instance" xsi:noNamespaceSchemaLocation="http://sumo.dlr.de/xsd/fcd_file.xsd">
    <timestep time="0.00"/>
    <timestep time="0.50"/>
    <timestep time="1.00"/>
    <timestep time="1.50"/>
    <timestep time="2.00"/>
    <timestep time="2.50"/>
    <timestep time="3.00"/>
    <timestep time="3.50"/>
    <timestep time="4.00"/>
    <timestep time="4.50"/>
    <timestep time="5.00"/>
    <timestep time="5.50"/>
    <timestep time="6.00"/>
    <timestep time="6.50">
        <vehicle id="ego" x="5.10" y="-1.60" angle="90.00" type="ego_type" speed="0.00" pos="5.10" lane="e0_0" slope="0.00"/>
    </timestep>
    <timestep time="7.00">
        <vehicle id="ego" x="5.10" y="-1.60" angle="90.00" type="ego_type" speed="0.00" pos="5.10" lane="e0_0" slope="0.00"/>
    </timestep>
    <timestep time="7.50">
        <vehicle id="ego" x="5.35" y="-1.60" angle="90.00" type="ego_type" speed="0.50" pos="5.35" lane="e0_0" slope="0.00"/>
    </timestep>
    <timestep time="8.00">
        <vehicle id="ego" x="5.35" y="-1.60" angle="90.00" type="ego_type" speed="0.00" pos="5.35" lane="e0_0" slope="0.00"/>
    </timestep>
    <timestep time="8.50">
        <vehicle id="ego" x="5.60" y="-1.60" angle="90.00" type="ego_type" speed="0.50" pos="5.60" lane="e0_0" slope="0.00"/>
    </timestep>
    <timestep time="9.00">
        <vehicle id="ego" x="5.60" y="-1.60" angle="90.00" type="ego_type" speed="0.00" pos="5.60" lane="e0_0" slope="0.00"/>
    </timestep>
    <timestep time="9.50">
        <vehicle id="ego" x="6.10" y="-1.60" angle="90.00" type="ego_type" speed="1.00" pos="6.10" lane="e0_0" slope="0.00"/>
    </timestep>
    <timestep time="10.00">
        <vehicle id="ego" x="7.10" y="-1.60" angle="90.00" type="ego_type" speed="2.00" pos="7.10" lane="e0_0" slope="0.00"/>
    </timestep>
    <timestep time="10.50">
        <vehicle id="ego" x="8.60" y="-1.60" angle="90.00" type="ego_type" speed="3.00" pos="8.60" lane="e0_0" slope="0.00"/>
    </timestep>
    <timestep time="11.00">
        <vehicle id="ego" x="9.72" y="-1.60" angle="90.00" type="ego_type" speed="2.25" pos="9.72" lane="e0_0" slope="0.00"/>
    </timestep>
    <timestep time="11.50">
        <vehicle id="ego" x="10.10" y="-1.60" angle="90.00" type="ego_type" speed="0.75" pos="10.10" lane="e0_0" slope="0.00"/>
    </timestep>
    <timestep time="12.00">
        <vehicle id="ego" x="10.10" y="-1.60" angle="90.00" type="ego_type" speed="0.00" pos="10.10" lane="e0_0" slope="0.00"/>
    </timestep>
    <timestep time="12.50">
        <vehicle id="ego" x="10.35" y="-1.60" angle="90.00" type="ego_type" speed="0.50" pos="10.35" lane="e0_0" slope="0.00"/>
    </timestep>
    <timestep time="13.00">
        <vehicle id="ego" x="10.85" y="-1.60" angle="90.00" type="ego_type" speed="1.00" pos="10.85" lane="e0_0" slope="0.00"/>
    </timestep>
    <timestep time="13.50">
        <vehicle id="ego" x="10.85" y="-1.60" angle="90.00" type="ego_type" speed="0.00" pos="10.85" lane="e0_0" slope="0.00"/>
    </timestep>
    <timestep time="14.00">
        <vehicle id="ego" x="10.85" y="-1.60" angle="90.00" type="ego_type" speed="0.00" pos="10.85" lane="e0_0" slope="0.00"/>
    </timestep>
    <timestep time="14.50">
        <vehicle id="ego" x="10.85" y="-1.60" angle="90.00" type="ego_type" speed="0.00" pos="10.85" lane="e0_0" slope="0.00"/>
    </timestep>
    <timestep time="15.00">
        <vehicle id="ego" x="10.85" y="-1.60" angle="90.00" type="ego_type" speed="0.00" pos="10.85" lane="e0_0" slope="0.00"/>
    </timestep>
    <timestep time="15.50">
        <vehicle id="ego" x="10.85" y="-1.60" angle="90.00" type="ego_type" speed="0.00" pos="10.85" lane="e0_0" slope="0.00"/>
    </timestep>
    <timestep time="16.00">
        <vehicle id="ego" x="10.85" y="-1.60" angle="90.00" type="ego_type" speed="0.00" pos="10.85" lane="e0_0" slope="0.00"/>
    </timestep>
    <timestep time="16.50">
        <vehicle id="ego" x="10.85" y="-1.60" angle="90.00" type="ego_type" speed="0.00" pos="10.85" lane="e0_0" slope="0.00"/>
    </timestep>
    <timestep time="17.00">
        <vehicle id="ego" x="10.85" y="-1.60" angle="90.00" type="ego_type" speed="0.00" pos="10.85" lane="e0_0" slope="0.00"/>
    </timestep>
    <timestep time="17.50">
        <vehicle id="ego" x="10.85" y="-1.60" angle="90.00" type="ego_type" speed="0.00" pos="10.85" lane="e0_0" slope="0.00"/>
    </timestep>
    <timestep time="18.00">
        <vehicle id="ego" x="10.85" y="-1.60" angle="90.00" type="ego_type" speed="0.00" pos="10.85" lane="e0_0" slope="0.00"/>
    </timestep>
    <timestep time="18.50">
        <vehicle id="ego" x="11.10" y="-1.60" angle="90.00" type="ego_type" speed="0.50" pos="11.10" lane="e0_0" slope="0.00"/>
    </timestep>
    <timestep time="19.00">
        <vehicle id="ego" x="11.85" y="-1.60" angle="90.00" type="ego_type" speed="1.50" pos="11.85" lane="e0_0" slope="0.00"/>
    </timestep>
    <timestep time="19.50">
        <vehicle id="ego" x="12.85" y="-1.60" angle="90.00" type="ego_type" speed="2.00" pos="12.85" lane="e0_0" slope="0.00"/>
    </timestep>
    <timestep time="20.00">
        <vehicle id="ego" x="13.85" y="-1.60" angle="90.00" type="ego_type" speed="2.00" pos="13.85" lane="e0_0" slope="0.00"/>
    </timestep>
    <timestep time="20.50">
        <vehicle id="ego" x="15.10" y="-1.60" angle="90.00" type="ego_type" speed="2.50" pos="15.10" lane="e0_0" slope="0.00"/>
    </timestep>
    <timestep time="21.00">
        <vehicle id="ego" x="16.60" y="-1.60" angle="90.00" type="ego_type" speed="3.00" pos="16.60" lane="e0_0" slope="0.00"/>
    </timestep>
    <timestep time="21.50">
        <vehicle id="ego" x="18.60" y="-1.60" angle="90.00" type="ego_type" speed="4.00" pos="18.60" lane="e0_0" slope="0.00"/>
    </timestep>
    <timestep time="22.00">
        <vehicle id="ego" x="20.23" y="-1.60" angle="90.00" type="ego_type" speed="3.25" pos="20.23" lane="e0_0" slope="0.00"/>
    </timestep>
    <timestep time="22.50">
        <vehicle id="ego" x="22.10" y="-1.60" angle="90.00" type="ego_type" speed="3.75" pos="22.10" lane="e0_0" slope="0.00"/>
    </timestep>
    <timestep time="23.00">
        <vehicle id="ego" x="24.23" y="-1.60" angle="90.00" type="ego_type" speed="4.25" pos="24.23" lane="e0_0" slope="0.00"/>
    </timestep>
    <timestep time="23.50">
        <vehicle id="ego" x="25.60" y="-1.60" angle="90.00" type="ego_type" speed="2.75" pos="25.60" lane="e0_0" slope="0.00"/>
    </timestep>
    <timestep time="24.00">
        <vehicle id="ego" x="26.60" y="-1.60" angle="90.00" type="ego_type" speed="2.00" pos="26.60" lane="e0_0" slope="0.00"/>
    </timestep>
    <timestep time="24.50">
        <vehicle id="ego" x="27.85" y="-1.60" angle="90.00" type="ego_type" speed="2.50" pos="27.85" lane="e0_0" slope="0.00"/>
    </timestep>
    <timestep time="25.00">
        <vehicle id="ego" x="28.73" y="-1.60" angle="90.00" type="ego_type" speed="1.75" pos="28.73" lane="e0_0" slope="0.00"/>
    </timestep>
    <timestep time="25.50">
        <vehicle id="ego" x="29.22" y="-1.60" angle="90.00" type="ego_type" speed="1.00" pos="29.23" lane="e0_0" slope="0.00"/>
    </timestep>
    <timestep time="26.00">
        <vehicle id="ego" x="30.23" y="-1.60" angle="90.00" type="ego_type" speed="2.00" pos="30.23" lane="e0_0" slope="0.00"/>
    </timestep>
    <timestep time="26.50">
        <vehicle id="ego" x="31.73" y="-1.60" angle="90.00" type="ego_type" speed="3.00" pos="31.73" lane="e0_0" slope="0.00"/>
    </timestep>
    <timestep time="27.00">
        <vehicle id="ego" x="32.48" y="-1.60" angle="90.00" type="ego_type" speed="1.50" pos="32.48" lane="e0_0" slope="0.00"/>
    </timestep>
    <timestep time="27.50">
        <vehicle id="ego" x="32.85" y="-1.60" angle="90.00" type="ego_type" speed="0.75" pos="32.85" lane="e0_0" slope="0.00"/>
    </timestep>
    <timestep time="28.00">
        <vehicle id="ego" x="32.85" y="-1.60" angle="90.00" type="ego_type" speed="0.00" pos="32.85" lane="e0_0" slope="0.00"/>
    </timestep>
    <timestep time="28.50">
        <vehicle id="ego" x="32.85" y="-1.60" angle="90.00" type="ego_type" speed="0.00" pos="32.85" lane="e0_0" slope="0.00"/>
    </timestep>
    <timestep time="29.00">
        <vehicle id="ego" x="32.85" y="-1.60" angle="90.00" type="ego_type" speed="0.00" pos="32.85" lane="e0_0" slope="0.00"/>
    </timestep>
    <timestep time="29.50">
        <vehicle id="ego" x="33.35" y="-1.60" angle="90.00" type="ego_type" speed="1.00" pos="33.35" lane="e0_0" slope="0.00"/>
    </timestep>
    <timestep time="30.00">
        <vehicle id="ego" x="34.35" y="-1.60" angle="90.00" type="ego_type" speed="2.00" pos="34.35" lane="e0_0" slope="0.00"/>
    </timestep>
    <timestep time="30.50">
        <vehicle id="ego" x="34.60" y="-1.60" angle="90.00" type="ego_type" speed="0.50" pos="34.60" lane="e0_0" slope="0.00"/>
    </timestep>
    <timestep time="31.00">
        <vehicle id="ego" x="35.35" y="-1.60" angle="90.00" type="ego_type" speed="1.50" pos="35.35" lane="e0_0" slope="0.00"/>
    </timestep>
    <timestep time="31.50">
        <vehicle id="background.0" x="5.10" y="-1.60" angle="90.00" type="human" speed="11.43" pos="5.10" lane="e0_0" slope="0.00"/>
        <vehicle id="ego" x="35.73" y="-1.60" angle="90.00" type="ego_type" speed="0.75" pos="35.73" lane="e0_0" slope="0.00"/>
    </timestep>
    <timestep time="32.00">
        <vehicle id="background.0" x="10.72" y="-1.60" angle="90.00" type="human" speed="11.24" pos="10.72" lane="e0_0" slope="0.00"/>
        <vehicle id="ego" x="35.73" y="-1.60" angle="90.00" type="ego_type" speed="0.00" pos="35.73" lane="e0_0" slope="0.00"/>
    </timestep>
    <timestep time="32.50">
        <vehicle id="background.0" x="15.34" y="-1.60" angle="90.00" type="human" speed="9.24" pos="15.34" lane="e0_0" slope="0.00"/>
        <vehicle id="ego" x="35.73" y="-1.60" angle="90.00" type="ego_type" speed="0.00" pos="35.73" lane="e0_0" slope="0.00"/>
    </timestep>
    <timestep time="33.00">
        <vehicle id="background.0" x="19.23" y="-1.60" angle="90.00" type="human" speed="7.78" pos="19.23" lane="e0_0" slope="0.00"/>
        <vehicle id="ego" x="35.73" y="-1.60" angle="90.00" type="ego_type" speed="0.00" pos="35.73" lane="e0_0" slope="0.00"/>
    </timestep>
    <timestep time="33.50">
        <vehicle id="background.0" x="22.27" y="-1.60" angle="90.00" type="human" speed="6.08" pos="22.27" lane="e0_0" slope="0.00"/>
        <vehicle id="ego" x="35.98" y="-1.60" angle="90.00" type="ego_type" speed="0.50" pos="35.98" lane="e0_0" slope="0.00"/>
    </timestep>
    <timestep time="34.00">
        <vehicle id="background.0" x="24.65" y="-1.60" angle="90.00" type="human" speed="4.76" pos="24.65" lane="e0_0" slope="0.00"/>
        <vehicle id="ego" x="35.98" y="-1.60" angle="90.00" type="ego_type" speed="0.00" pos="35.98" lane="e0_0" slope="0.00"/>
    </timestep>
    <timestep time="34.50">
        <vehicle id="background.0" x="26.22" y="-1.60" angle="90.00" type="human" speed="3.14" pos="26.22" lane="e0_0" slope="0.00"/>
        <vehicle id="ego" x="36.48" y="-1.60" angle="90.00" type="ego_type" speed="1.00" pos="36.48" lane="e0_0" slope="0.00"/>
    </timestep>
    <timestep time="35.00">
        <vehicle id="background.0" x="27.38" y="-1.60" angle="90.00" type="human" speed="2.31" pos="27.38" lane="e0_0" slope="0.00"/>
        <vehicle id="ego" x="36.98" y="-1.60" angle="90.00" type="ego_type" speed="1.00" pos="36.98" lane="e0_0" slope="0.00"/>
    </timestep>
    <timestep time="35.50">
        <vehicle id="background.0" x="28.37" y="-1.60" angle="90.00" type="human" speed="1.99" pos="28.37" lane="e0_0" slope="0.00"/>
        <vehicle id="ego" x="37.48" y="-1.60" angle="90.00" type="ego_type" speed="1.00" pos="37.48" lane="e0_0" slope="0.00"/>
    </timestep>
    <timestep time="36.00">
        <vehicle id="background.0" x="29.09" y="-1.60" angle="90.00" type="human" speed="1.44" pos="29.09" lane="e0_0" slope="0.00"/>
        <vehicle id="ego" x="37.48" y="-1.60" angle="90.00" type="ego_type" speed="0.00" pos="37.48" lane="e0_0" slope="0.00"/>
    </timestep>
    <timestep time="36.50">
        <vehicle id="background.0" x="29.47" y="-1.60" angle="90.00" type="human" speed="0.75" pos="29.47" lane="e0_0" slope="0.00"/>
        <vehicle id="ego" x="37.48" y="-1.60" angle="90.00" type="ego_type" speed="0.00" pos="37.48" lane="e0_0" slope="0.00"/>
    </timestep>
    <timestep time="37.00">
        <vehicle id="background.0" x="29.72" y="-1.60" angle="90.00" type="human" speed="0.50" pos="29.72" lane="e0_0" slope="0.00"/>
        <vehicle id="ego" x="37.73" y="-1.60" angle="90.00" type="ego_type" speed="0.50" pos="37.73" lane="e0_0" slope="0.00"/>
    </timestep>
    <timestep time="37.50">
        <vehicle id="background.0" x="29.92" y="-1.60" angle="90.00" type="human" speed="0.41" pos="29.92" lane="e0_0" slope="0.00"/>
        <vehicle id="ego" x="37.73" y="-1.60" angle="90.00" type="ego_type" speed="0.00" pos="37.73" lane="e0_0" slope="0.00"/>
    </timestep>
    <timestep time="38.00">
        <vehicle id="background.0" x="30.04" y="-1.60" angle="90.00" type="human" speed="0.23" pos="30.04" lane="e0_0" slope="0.00"/>
        <vehicle id="ego" x="37.97" y="-1.60" angle="90.00" type="ego_type" speed="0.50" pos="37.98" lane="e0_0" slope="0.00"/>
    </timestep>
    <timestep time="38.50">
        <vehicle id="background.0" x="30.22" y="-1.60" angle="90.00" type="human" speed="0.37" pos="30.22" lane="e0_0" slope="0.00"/>
        <vehicle id="ego" x="38.23" y="-1.60" angle="90.00" type="ego_type" speed="0.50" pos="38.23" lane="e0_0" slope="0.00"/>
    </timestep>
    <timestep time="39.00">
        <vehicle id="background.0" x="30.46" y="-1.60" angle="90.00" type="human" speed="0.48" pos="30.46" lane="e0_0" slope="0.00"/>
        <vehicle id="ego" x="38.98" y="-1.60" angle="90.00" type="ego_type" speed="1.50" pos="38.98" lane="e0_0" slope="0.00"/>
    </timestep>
    <timestep time="39.50">
        <vehicle id="background.0" x="30.93" y="-1.60" angle="90.00" type="human" speed="0.94" pos="30.93" lane="e0_0" slope="0.00"/>
        <vehicle id="ego" x="38.98" y="-1.60" angle="90.00" type="ego_type" speed="0.00" pos="38.98" lane="e0_0" slope="0.00"/>
    </timestep>
    <timestep time="40.00">
        <vehicle id="background.0" x="31.18" y="-1.60" angle="90.00" type="human" speed="0.49" pos="31.18" lane="e0_0" slope="0.00"/>
        <vehicle id="ego" x="38.98" y="-1.60" angle="90.00" type="ego_type" speed="0.00" pos="38.98" lane="e0_0" slope="0.00"/>
    </timestep>
    <timestep time="40.50">
        <vehicle id="background.0" x="31.30" y="-1.60" angle="90.00" type="human" speed="0.25" pos="31.30" lane="e0_0" slope="0.00"/>
        <vehicle id="ego" x="39.23" y="-1.60" angle="90.00" type="ego_type" speed="0.50" pos="39.23" lane="e0_0" slope="0.00"/>
    </timestep>
    <timestep time="41.00">
        <vehicle id="background.0" x="31.50" y="-1.60" angle="90.00" type="human" speed="0.39" pos="31.50" lane="e0_0" slope="0.00"/>
        <vehicle id="ego" x="39.73" y="-1.60" angle="90.00" type="ego_type" speed="1.00" pos="39.73" lane="e0_0" slope="0.00"/>
    </timestep>
    <timestep time="41.50">
        <vehicle id="background.0" x="31.84" y="-1.60" angle="90.00" type="human" speed="0.70" pos="31.84" lane="e0_0" slope="0.00"/>
        <vehicle id="ego" x="40.23" y="-1.60" angle="90.00" type="ego_type" speed="1.00" pos="40.23" lane="e0_0" slope="0.00"/>
    </timestep>
    <timestep time="42.00">
        <vehicle id="background.0" x="32.26" y="-1.60" angle="90.00" type="human" speed="0.83" pos="32.26" lane="e0_0" slope="0.00"/>
        <vehicle id="ego" x="40.73" y="-1.60" angle="90.00" type="ego_type" speed="1.00" pos="40.73" lane="e0_0" slope="0.00"/>
    </timestep>
    <timestep time="42.50">
        <vehicle id="background.0" x="32.73" y="-1.60" angle="90.00" type="human" speed="0.94" pos="32.73" lane="e0_0" slope="0.00"/>
        <vehicle id="ego" x="40.73" y="-1.60" angle="90.00" type="ego_type" speed="0.00" pos="40.73" lane="e0_0" slope="0.00"/>
    </timestep>
    <timestep time="43.00">
        <vehicle id="background.0" x="32.95" y="-1.60" angle="90.00" type="human" speed="0.43" pos="32.95" lane="e0_0" slope="0.00"/>
        <vehicle id="ego" x="40.73" y="-1.60" angle="90.00" type="ego_type" speed="0.00" pos="40.73" lane="e0_0" slope="0.00"/>
    </timestep>
    <timestep time="43.50">
        <vehicle id="background.0" x="33.07" y="-1.60" angle="90.00" type="human" speed="0.25" pos="33.07" lane="e0_0" slope="0.00"/>
        <vehicle id="ego" x="40.73" y="-1.60" angle="90.00" type="ego_type" speed="0.00" pos="40.73" lane="e0_0" slope="0.00"/>
    </timestep>
    <timestep time="44.00">
        <vehicle id="background.0" x="33.14" y="-1.60" angle="90.00" type="human" speed="0.13" pos="33.14" lane="e0_0" slope="0.00"/>
        <vehicle id="background.1" x="5.10" y="-1.60" angle="90.00" type="human" speed="10.59" pos="5.10" lane="e0_0" slope="0.00"/>
        <vehicle id="ego" x="40.73" y="-1.60" angle="90.00" type="ego_type" speed="0.00" pos="40.73" lane="e0_0" slope="0.00"/>
    </timestep>
    <timestep time="44.50">
        <vehicle id="background.0" x="33.17" y="-1.60" angle="90.00" type="human" speed="0.07" pos="33.17" lane="e0_0" slope="0.00"/>
        <vehicle id="background.1" x="10.31" y="-1.60" angle="90.00" type="human" speed="10.43" pos="10.31" lane="e0_0" slope="0.00"/>
        <vehicle id="ego" x="40.73" y="-1.60" angle="90.00" type="ego_type" speed="0.00" pos="40.73" lane="e0_0" slope="0.00"/>
    </timestep>
    <timestep time="45.00">
        <vehicle id="background.0" x="33.19" y="-1.60" angle="90.00" type="human" speed="0.05" pos="33.19" lane="e0_0" slope="0.00"/>
        <vehicle id="background.1" x="14.50" y="-1.60" angle="90.00" type="human" speed="8.37" pos="14.50" lane="e0_0" slope="0.00"/>
        <vehicle id="ego" x="41.22" y="-1.60" angle="90.00" type="ego_type" speed="1.00" pos="41.23" lane="e0_0" slope="0.00"/>
    </timestep>
    <timestep time="45.50">
        <vehicle id="background.0" x="33.39" y="-1.60" angle="90.00" type="human" speed="0.40" pos="33.39" lane="e0_0" slope="0.00"/>
        <vehicle id="background.1" x="17.96" y="-1.60" angle="90.00" type="human" speed="6.93" pos="17.96" lane="e0_0" slope="0.00"/>
        <vehicle id="ego" x="41.22" y="-1.60" angle="90.00" type="ego_type" speed="0.00" pos="41.23" lane="e0_0" slope="0.00"/>
    </timestep>
    <timestep time="46.00">
        <vehicle id="background.0" x="33.54" y="-1.60" angle="90.00" type="human" speed="0.30" pos="33.54" lane="e0_0" slope="0.00"/>
        <vehicle id="background.1" x="20.77" y="-1.60" angle="90.00" type="human" speed="5.62" pos="20.77" lane="e0_0" slope="0.00"/>
        <vehicle id="ego" x="41.22" y="-1.60" angle="90.00" type="ego_type" speed="0.00" pos="41.23" lane="e0_0" slope="0.00"/>
    </timestep>
    <timestep time="46.50">
        <vehicle id="background.0" x="33.62" y="-1.60" angle="90.00" type="human" speed="0.15" pos="33.62" lane="e0_0" slope="0.00"/>
        <vehicle id="background.1" x="22.67" y="-1.60" angle="90.00" type="human" speed="3.80" pos="22.67" lane="e0_0" slope="0.00"/>
        <vehicle id="ego" x="41.22" y="-1.60" angle="90.00" type="ego_type" speed="0.00" pos="41.23" lane="e0_0" slope="0.00"/>
    </timestep>
    <timestep time="47.00">
        <vehicle id="background.0" x="33.66" y="-1.60" angle="90.00" type="human" speed="0.09" pos="33.66" lane="e0_0" slope="0.00"/>
        <vehicle id="background.1" x="23.96" y="-1.60" angle="90.00" type="human" speed="2.58" pos="23.96" lane="e0_0" slope="0.00"/>
        <vehicle id="ego" x="41.73" y="-1.60" angle="90.00" type="ego_type" speed="1.00" pos="41.73" lane="e0_0" slope="0.00"/>
    </timestep>
    <timestep time="47.50">
        <vehicle id="background.0" x="33.92" y="-1.60" angle="90.00" type="human" speed="0.51" pos="33.92" lane="e0_0" slope="0.00"/>
        <vehicle id="background.1" x="24.95" y="-1.60" angle="90.00" type="human" speed="1.97" pos="24.95" lane="e0_0" slope="0.00"/>
        <vehicle id="ego" x="41.73" y="-1.60" angle="90.00" type="ego_type" speed="0.00" pos="41.73" lane="e0_0" slope="0.00"/>
    </timestep>
    <timestep time="48.00">
        <vehicle id="background.0" x="34.05" y="-1.60" angle="90.00" type="human" speed="0.26" pos="34.05" lane="e0_0" slope="0.00"/>
        <vehicle id="background.1" x="25.62" y="-1.60" angle="90.00" type="human" speed="1.36" pos="25.62" lane="e0_0" slope="0.00"/>
        <vehicle id="ego" x="41.73" y="-1.60" angle="90.00" type="ego_type" speed="0.00" pos="41.73" lane="e0_0" slope="0.00"/>
    </timestep>
    <timestep time="48.50">
        <vehicle id="background.0" x="34.12" y="-1.60" angle="90.00" type="human" speed="0.13" pos="34.12" lane="e0_0" slope="0.00"/>
        <vehicle id="background.1" x="26.07" y="-1.60" angle="90.00" type="human" speed="0.88" pos="26.07" lane="e0_0" slope="0.00"/>
        <vehicle id="ego" x="41.73" y="-1.60" angle="90.00" type="ego_type" speed="0.00" pos="41.73" lane="e0_0" slope="0.00"/>
    </timestep>
    <timestep time="49.00">
        <vehicle id="background.0" x="34.16" y="-1.60" angle="90.00" type="human" speed="0.10" pos="34.16" lane="e0_0" slope="0.00"/>
        <vehicle id="background.1" x="26.32" y="-1.60" angle="90.00" type="human" speed="0.50" pos="26.32" lane="e0_0" slope="0.00"/>
        <vehicle id="ego" x="41.73" y="-1.60" angle="90.00" type="ego_type" speed="0.00" pos="41.73" lane="e0_0" slope="0.00"/>
    </timestep>
    <timestep time="49.50">
        <vehicle id="background.0" x="34.19" y="-1.60" angle="90.00" type="human" speed="0.05" pos="34.19" lane="e0_0" slope="0.00"/>
        <vehicle id="background.1" x="26.48" y="-1.60" angle="90.00" type="human" speed="0.33" pos="26.48" lane="e0_0" slope="0.00"/>
        <vehicle id="ego" x="41.98" y="-1.60" angle="90.00" type="ego_type" speed="0.50" pos="41.98" lane="e0_0" slope="0.00"/>
    </timestep>
    <timestep time="50.00">
        <vehicle id="background.0" x="34.33" y="-1.60" angle="90.00" type="human" speed="0.28" pos="34.33" lane="e0_0" slope="0.00"/>
        <vehicle id="background.1" x="26.57" y="-1.60" angle="90.00" type="human" speed="0.18" pos="26.57" lane="e0_0" slope="0.00"/>
        <vehicle id="ego" x="41.98" y="-1.60" angle="90.00" type="ego_type" speed="0.00" pos="41.98" lane="e0_0" slope="0.00"/>
    </timestep>
    <timestep time="50.50">
        <vehicle id="background.0" x="34.39" y="-1.60" angle="90.00" type="human" speed="0.12" pos="34.39" lane="e0_0" slope="0.00"/>
        <vehicle id="background.1" x="26.69" y="-1.60" angle="90.00" type="human" speed="0.23" pos="26.69" lane="e0_0" slope="0.00"/>
        <vehicle id="ego" x="41.98" y="-1.60" angle="90.00" type="ego_type" speed="0.00" pos="41.98" lane="e0_0" slope="0.00"/>
    </timestep>
    <timestep time="51.00">
        <vehicle id="background.0" x="34.43" y="-1.60" angle="90.00" type="human" speed="0.07" pos="34.43" lane="e0_0" slope="0.00"/>
        <vehicle id="background.1" x="26.78" y="-1.60" angle="90.00" type="human" speed="0.19" pos="26.78" lane="e0_0" slope="0.00"/>
        <vehicle id="ego" x="42.48" y="-1.60" angle="90.00" type="ego_type" speed="1.00" pos="42.48" lane="e0_0" slope="0.00"/>
    </timestep>
    <timestep time="51.50">
        <vehicle id="background.0" x="34.64" y="-1.60" angle="90.00" type="human" speed="0.42" pos="34.64" lane="e0_0" slope="0.00"/>
        <vehicle id="background.1" x="26.85" y="-1.60" angle="90.00" type="human" speed="0.13" pos="26.85" lane="e0_0" slope="0.00"/>
        <vehicle id="ego" x="42.48" y="-1.60" angle="90.00" type="ego_type" speed="0.00" pos="42.48" lane="e0_0" slope="0.00"/>
    </timestep>
    <timestep time="52.00">
        <vehicle id="background.0" x="34.79" y="-1.60" angle="90.00" type="human" speed="0.30" pos="34.79" lane="e0_0" slope="0.00"/>
        <vehicle id="background.1" x="26.97" y="-1.60" angle="90.00" type="human" speed="0.25" pos="26.97" lane="e0_0" slope="0.00"/>
        <vehicle id="ego" x="42.73" y="-1.60" angle="90.00" type="ego_type" speed="0.50" pos="42.73" lane="e0_0" slope="0.00"/>
    </timestep>
    <timestep time="52.50">
        <vehicle id="background.0" x="35.01" y="-1.60" angle="90.00" type="human" speed="0.43" pos="35.01" lane="e0_0" slope="0.00"/>
        <vehicle id="background.1" x="27.11" y="-1.60" angle="90.00" type="human" speed="0.28" pos="27.11" lane="e0_0" slope="0.00"/>
        <vehicle id="ego" x="42.73" y="-1.60" angle="90.00" type="ego_type" speed="0.00" pos="42.73" lane="e0_0" slope="0.00"/>
    </timestep>
    <timestep time="53.00">
        <vehicle id="background.0" x="35.09" y="-1.60" angle="90.00" type="human" speed="0.18" pos="35.09" lane="e0_0" slope="0.00"/>
        <vehicle id="background.1" x="27.29" y="-1.60" angle="90.00" type="human" speed="0.36" pos="27.29" lane="e0_0" slope="0.00"/>
        <vehicle id="ego" x="42.73" y="-1.60" angle="90.00" type="ego_type" speed="0.00" pos="42.73" lane="e0_0" slope="0.00"/>
    </timestep>
    <timestep time="53.50">
        <vehicle id="background.0" x="35.15" y="-1.60" angle="90.00" type="human" speed="0.11" pos="35.15" lane="e0_0" slope="0.00"/>
        <vehicle id="background.1" x="27.43" y="-1.60" angle="90.00" type="human" speed="0.26" pos="27.43" lane="e0_0" slope="0.00"/>
        <vehicle id="ego" x="42.73" y="-1.60" angle="90.00" type="ego_type" speed="0.00" pos="42.73" lane="e0_0" slope="0.00"/>
    </timestep>
    <timestep time="54.00">
        <vehicle id="background.0" x="35.19" y="-1.60" angle="90.00" type="human" speed="0.07" pos="35.19" lane="e0_0" slope="0.00"/>
        <vehicle id="background.1" x="27.53" y="-1.60" angle="90.00" type="human" speed="0.21" pos="27.53" lane="e0_0" slope="0.00"/>
        <vehicle id="ego" x="42.73" y="-1.60" angle="90.00" type="ego_type" speed="0.00" pos="42.73" lane="e0_0" slope="0.00"/>
    </timestep>
    <timestep time="54.50">
        <vehicle id="background.0" x="35.20" y="-1.60" angle="90.00" type="human" speed="0.03" pos="35.20" lane="e0_0" slope="0.00"/>
        <vehicle id="background.1" x="27.60" y="-1.60" angle="90.00" type="human" speed="0.15" pos="27.60" lane="e0_0" slope="0.00"/>
        <vehicle id="ego" x="42.73" y="-1.60" angle="90.00" type="ego_type" speed="0.00" pos="42.73" lane="e0_0" slope="0.00"/>
    </timestep>
    <timestep time="55.00">
        <vehicle id="background.0" x="35.21" y="-1.60" angle="90.00" type="human" speed="0.02" pos="35.21" lane="e0_0" slope="0.00"/>
        <vehicle id="background.1" x="27.65" y="-1.60" angle="90.00" type="human" speed="0.10" pos="27.65" lane="e0_0" slope="0.00"/>
        <vehicle id="ego" x="42.73" y="-1.60" angle="90.00" type="ego_type" speed="0.00" pos="42.73" lane="e0_0" slope="0.00"/>
    </timestep>
    <timestep time="55.50">
        <vehicle id="background.0" x="35.22" y="-1.60" angle="90.00" type="human" speed="0.01" pos="35.22" lane="e0_0" slope="0.00"/>
        <vehicle id="background.1" x="27.68" y="-1.60" angle="90.00" type="human" speed="0.06" pos="27.68" lane="e0_0" slope="0.00"/>
        <vehicle id="ego" x="42.73" y="-1.60" angle="90.00" type="ego_type" speed="0.00" pos="42.73" lane="e0_0" slope="0.00"/>
    </timestep>
    <timestep time="56.00">
        <vehicle id="background.0" x="35.22" y="-1.60" angle="90.00" type="human" speed="0.01" pos="35.22" lane="e0_0" slope="0.00"/>
        <vehicle id="background.1" x="27.69" y="-1.60" angle="90.00" type="human" speed="0.03" pos="27.69" lane="e0_0" slope="0.00"/>
        <vehicle id="background.2" x="5.10" y="-1.60" angle="90.00" type="human" speed="8.74" pos="5.10" lane="e0_0" slope="0.00"/>
        <vehicle id="ego" x="42.98" y="-1.60" angle="90.00" type="ego_type" speed="0.50" pos="42.98" lane="e0_0" slope="0.00"/>
    </timestep>
    <timestep time="56.50">
        <vehicle id="background.0" x="35.33" y="-1.60" angle="90.00" type="human" speed="0.22" pos="35.33" lane="e0_0" slope="0.00"/>
        <vehicle id="background.1" x="27.71" y="-1.60" angle="90.00" type="human" speed="0.02" pos="27.71" lane="e0_0" slope="0.00"/>
        <vehicle id="background.2" x="9.40" y="-1.60" angle="90.00" type="human" speed="8.61" pos="9.40" lane="e0_0" slope="0.00"/>
        <vehicle id="ego" x="42.98" y="-1.60" angle="90.00" type="ego_type" speed="0.00" pos="42.98" lane="e0_0" slope="0.00"/>
    </timestep>
    <timestep time="57.00">
        <vehicle id="background.0" x="35.39" y="-1.60" angle="90.00" type="human" speed="0.12" pos="35.39" lane="e0_0" slope="0.00"/>
        <vehicle id="background.1" x="27.76" y="-1.60" angle="90.00" type="human" speed="0.12" pos="27.76" lane="e0_0" slope="0.00"/>
        <vehicle id="background.2" x="12.82" y="-1.60" angle="90.00" type="human" speed="6.84" pos="12.82" lane="e0_0" slope="0.00"/>
        <vehicle id="ego" x="43.48" y="-1.60" angle="90.00" type="ego_type" speed="1.00" pos="43.48" lane="e0_0" slope="0.00"/>
    </timestep>